LAMMPS (29 Sep 2021)
Reading data file ...
  triclinic box = (0.0000000 0.0000000 0.0000000) to (21.724000 21.724000 21.724000) with tilt (0.0000000 0.0000000 0.0000000)
  1 by 1 by 1 MPI processor grid
  reading atoms ...
  512 atoms
  read_data CPU = 0.004 seconds
Reading sw potential file Si.sw with DATE: 2007-06-11
Neighbor list info ...
  update every 1 steps, delay 0 steps, check yes
  max neighbors/atom: 2000, page size: 100000
  master list distance cutoff = 5.77118
  ghost atom cutoff = 5.77118
  binsize = 2.88559, bins = 8 8 8
  1 neighbor lists, perpetual/occasional/extra = 1 0 0
  (1) pair sw, perpetual
      attributes: full, newton on
      pair build: full/bin/atomonly
      stencil: full/bin/3d
      bin: standard
Setting up Verlet run ...
  Unit style    : metal
  Current step  : 0
  Time step     : 0.001
Per MPI rank memory allocation (min/avg/max) = 5.273 | 5.273 | 5.273 Mbytes
Time Temp Press Volume PotEng Econserve 
           0          300    2036.3253    10252.255   -2220.2982   -2200.4827 
         0.1    151.73957    2221.8306    10252.255   -2208.4313   -2200.4621 
         0.2    164.48826    2559.4022    10252.255   -2205.7704   -2200.4575 
         0.3    221.76492    2761.1792    10252.255   -2205.3261   -2200.4598 
         0.4     221.1868    2936.3452    10252.255   -2200.7983   -2200.4537 
         0.5    291.17496    3408.5402    10252.255   -2201.3052   -2200.4545 
         0.6     331.1791    3956.3998    10252.255   -2200.6263   -2200.4529 
         0.7    256.52369    3948.6284    10252.255   -2194.7986   -2200.4425 
         0.8    316.84306    3602.8495    10252.255   -2200.3078   -2200.4537 
         0.9    294.30147    3646.0761    10252.255   -2200.9252    -2200.452 
           1    231.14827    3635.0069    10252.255   -2197.8703   -2200.4472 
         1.1     315.5853    3762.0923    10252.255   -2202.5262   -2200.4548 
         1.2    331.55482    3700.9234    10252.255   -2201.8768   -2200.4546 
         1.3    310.74166    3953.7377    10252.255   -2199.4162   -2200.4503 
         1.4    319.89948    3742.6816    10252.255   -2200.3054   -2200.4505 
         1.5    279.22134     3636.414    10252.255    -2199.167   -2200.4508 
         1.6    302.58495    3834.7817    10252.255   -2201.7708   -2200.4528 
         1.7     324.7828    3675.4011    10252.255   -2203.2445    -2200.456 
         1.8    319.53095    3677.8052    10252.255   -2201.6654   -2200.4547 
         1.9     293.4153    3929.8504    10252.255    -2198.853   -2200.4471 
           2    326.41449    3897.2249    10252.255    -2200.712    -2200.452 
         2.1    263.65104    3557.0102    10252.255   -2197.6859   -2200.4485 
         2.2    305.60355    3578.8575    10252.255   -2201.5047   -2200.4542 
         2.3    266.48814    3478.3781    10252.255     -2199.35   -2200.4517 
         2.4    254.58989    3458.1934    10252.255   -2197.9183   -2200.4506 
         2.5    269.69502    3588.3266    10252.255   -2197.8027   -2200.4498 
         2.6    356.29297    3891.3904    10252.255   -2202.9402   -2200.4563 
         2.7    258.68295    4010.2908    10252.255   -2197.0793   -2200.4445 
         2.8    290.92318    3802.9921    10252.255   -2200.8424   -2200.4515 
         2.9    314.72408    3580.8172    10252.255   -2202.5563   -2200.4571 
           3     309.1354    3699.9853    10252.255   -2201.4329   -2200.4518 
         3.1    316.39203    3792.6462    10252.255    -2201.348   -2200.4527 
         3.2    325.57137     3898.692    10252.255   -2201.8082   -2200.4526 
         3.3    302.01558    3771.5585    10252.255   -2200.3987   -2200.4522 
         3.4    308.04726    3315.9102    10252.255   -2200.8981    -2200.455 
         3.5    271.01616    3492.0552    10252.255   -2199.3065    -2200.449 
         3.6    266.19699    3661.8011    10252.255   -2199.7323     -2200.45 
         3.7    299.90731    3439.9991    10252.255   -2201.3886   -2200.4547 
         3.8    324.87596    3915.9071    10252.255   -2201.2635   -2200.4527 
         3.9    320.12491    4070.6193    10252.255   -2200.8783   -2200.4499 
           4    286.64067    3519.7422    10252.255   -2199.2257   -2200.4508 
         4.1    283.90415    3746.5474    10252.255   -2200.0234   -2200.4503 
         4.2    283.28432    3748.0868    10252.255   -2201.2047   -2200.4524 
         4.3    277.46452    3583.1364    10252.255   -2200.6053   -2200.4518 
         4.4     328.1726    3822.8141    10252.255   -2201.7813   -2200.4532 
         4.5    292.78029    3874.5053    10252.255   -2198.9048   -2200.4486 
         4.6    322.40639    3539.5825    10252.255   -2201.2277   -2200.4537 
         4.7    287.20046    3676.4105    10252.255   -2199.9629   -2200.4518 
         4.8    299.83266     3610.292    10252.255   -2201.6564   -2200.4526 
         4.9    301.22204    3690.2385    10252.255   -2201.3139   -2200.4525 
           5    335.50444    3980.9439    10252.255   -2201.3849   -2200.4526 
         5.1    309.19186    3634.1484    10252.255   -2199.7976    -2200.452 
         5.2    329.23596    3774.8868    10252.255   -2202.1129   -2200.4538 
         5.3    278.04328    3402.4939    10252.255   -2199.7641   -2200.4516 
         5.4    284.20132    3614.3104    10252.255   -2199.9861   -2200.4511 
         5.5    308.72905    3940.4535    10252.255   -2200.9492   -2200.4517 
         5.6    303.44243    3979.3243    10252.255    -2199.731   -2200.4495 
         5.7    312.92153    4106.9646    10252.255   -2198.9993   -2200.4477 
         5.8    332.69437      4191.83    10252.255   -2199.2118   -2200.4487 
         5.9    292.76781    3685.2582    10252.255   -2198.4917   -2200.4508 
           6    282.03489    3340.2437    10252.255   -2199.1427   -2200.4518 
         6.1    280.15335    3769.9012    10252.255   -2199.6494   -2200.4494 
         6.2    284.94921    3507.9849    10252.255   -2200.1825   -2200.4523 
         6.3    305.23286    3471.2788    10252.255   -2200.6225   -2200.4535 
         6.4    309.92181    3741.2974    10252.255   -2199.4854   -2200.4509 
         6.5    327.31417    3826.9093    10252.255    -2200.694   -2200.4524 
         6.6    289.67392    3775.9783    10252.255   -2199.7602     -2200.45 
         6.7    295.58163    3933.0841    10252.255   -2200.5587   -2200.4493 
         6.8    318.45589    3845.0923    10252.255   -2201.8011   -2200.4539 
         6.9    302.34223    3577.2147    10252.255   -2200.2683   -2200.4529 
           7    307.64298    3847.6499    10252.255   -2199.7672   -2200.4508 
         7.1    306.13744    3751.9743    10252.255   -2199.7491   -2200.4518 
         7.2    292.71905    3662.2929    10252.255   -2200.3728   -2200.4514 
         7.3    256.02527    3625.1616    10252.255    -2198.843   -2200.4493 
         7.4    302.16201    3731.8254    10252.255    -2201.213   -2200.4526 
         7.5    295.58518    3769.3541    10252.255   -2199.5235   -2200.4503 
         7.6    317.15151    3761.3423    10252.255   -2200.5348   -2200.4523 
         7.7    304.22851     3560.118    10252.255   -2200.1015    -2200.454 
         7.8    303.62741    3683.2974    10252.255   -2200.6201   -2200.4517 
         7.9    261.09098    3593.1037    10252.255   -2198.2391   -2200.4482 
           8    277.23012    3508.0479    10252.255   -2199.9891   -2200.4512 
         8.1    305.82183    3683.7309    10252.255   -2202.5441   -2200.4541 
         8.2    297.48424    3657.1018    10252.255   -2201.3737   -2200.4539 
         8.3    337.50782     4134.317    10252.255   -2202.3498   -2200.4522 
         8.4    335.04532    4086.9046    10252.255    -2201.905   -2200.4517 
         8.5     307.9586    3864.5342    10252.255   -2200.4813   -2200.4509 
         8.6    293.46145    3588.7159    10252.255   -2200.5281    -2200.452 
         8.7     298.0537    3600.8064    10252.255   -2202.0504   -2200.4538 
         8.8    271.66592    3520.4012    10252.255   -2200.2227   -2200.4515 
         8.9    310.23955    3535.4166    10252.255   -2200.5319   -2200.4531 
           9    290.97719    3656.7774    10252.255   -2198.7341   -2200.4501 
         9.1     261.3137    3569.0196    10252.255   -2197.5551   -2200.4481 
         9.2     286.2744     3575.758    10252.255   -2200.2132   -2200.4511 
         9.3    300.32197    3731.3761    10252.255   -2201.5496   -2200.4531 
         9.4    335.18865    4027.9049    10252.255   -2202.8145   -2200.4545 
         9.5    312.35543    3956.3443    10252.255   -2199.6775   -2200.4501 
         9.6    283.67513    3898.2635    10252.255   -2198.1375   -2200.4475 
         9.7    325.51476     3722.234    10252.255   -2202.1389    -2200.455 
         9.8     298.8641    3605.1163    10252.255   -2201.1233   -2200.4524 
         9.9    283.66902     3862.743    10252.255   -2199.8147   -2200.4498 
          10    325.17687    3849.0751    10252.255   -2202.1842   -2200.4538 
        10.1    308.56014    3644.8876    10252.255   -2200.8095    -2200.453 
        10.2     302.0151    3475.1185    10252.255    -2200.387    -2200.453 
        10.3    301.73827    3609.8503    10252.255   -2200.4217   -2200.4531 
        10.4    264.99665    3824.7303    10252.255   -2197.7611   -2200.4461 
        10.5    287.84575     3679.625    10252.255   -2199.0842   -2200.4505 
        10.6    321.53396    3725.1804    10252.255   -2201.3561   -2200.4528 
        10.7    283.49492    3507.3981    10252.255   -2199.6418   -2200.4518 
        10.8     278.4703    3359.7039    10252.255   -2199.8988   -2200.4531 
        10.9    292.01619    3641.0964    10252.255   -2200.8416   -2200.4521 
          11    290.41275    3869.4577    10252.255   -2199.2727   -2200.4494 
        11.1    334.36528    3972.6998    10252.255   -2201.1922   -2200.4522 
        11.2    298.77842    4003.7319    10252.255   -2199.3038   -2200.4492 
        11.3    305.99466    3785.5459    10252.255   -2200.9849   -2200.4527 
        11.4    308.06864    3715.1464    10252.255   -2201.5129   -2200.4536 
        11.5    317.72881    3705.4034    10252.255   -2201.9219   -2200.4542 
        11.6    290.70205    3527.2308    10252.255   -2199.8305   -2200.4521 
        11.7    285.25534    3847.9891    10252.255   -2198.6855   -2200.4476 
        11.8    275.19963    3612.0275    10252.255   -2197.3425   -2200.4487 
        11.9    332.90944    3603.8035    10252.255   -2200.5932   -2200.4545 
          12    320.95002    3784.9543    10252.255   -2201.1129   -2200.4522 
        12.1    255.97032    3538.4891    10252.255   -2198.0592   -2200.4486 
        12.2    290.45106    3692.4063    10252.255   -2200.4151   -2200.4512 
        12.3    312.20511    3771.1571    10252.255   -2201.0986   -2200.4523 
        12.4    331.39648    3706.8274    10252.255   -2200.8559   -2200.4527 
        12.5    321.07458    4021.4613    10252.255   -2199.9255   -2200.4496 
        12.6    308.28583    4005.3023    10252.255   -2201.1271   -2200.4506 
        12.7    297.39254     3493.882    10252.255   -2201.1262    -2200.454 
        12.8    308.47579    3700.3034    10252.255   -2201.1395   -2200.4525 
        12.9    268.71419    3747.2491    10252.255   -2197.6208   -2200.4472 
          13    304.66465    3718.6371    10252.255   -2199.5866    -2200.452 
        13.1    334.92478    3890.7589    10252.255   -2202.2298   -2200.4543 
        13.2    295.57361    3716.9928    10252.255   -2201.2438   -2200.4523 
        13.3    299.38244     3725.332    10252.255   -2201.4397   -2200.4518 
        13.4    279.38486    3624.2941    10252.255   -2199.1474   -2200.4515 
        13.5    290.17101    3650.1272    10252.255   -2198.9375   -2200.4502 
        13.6    308.47466    3761.3493    10252.255   -2200.3125   -2200.4517 
        13.7    311.70233    3883.6987    10252.255   -2200.7694   -2200.4513 
        13.8    297.70477     3753.539    10252.255   -2200.4783   -2200.4512 
        13.9    319.83145    3776.1103    10252.255   -2202.6039   -2200.4542 
          14    295.91995    3542.2179    10252.255   -2201.8904   -2200.4542 
        14.1    286.83366    3606.1828    10252.255   -2201.1768   -2200.4528 
        14.2    308.80752    3816.6562    10252.255   -2200.9229   -2200.4523 
        14.3    282.91664    3837.8889    10252.255   -2198.5072   -2200.4484 
        14.4    293.39286    3783.4116    10252.255   -2199.2763   -2200.4497 
        14.5    298.53079    3594.7604    10252.255   -2200.8392   -2200.4538 
        14.6    294.34011    3323.1457    10252.255   -2201.8731   -2200.4552 
        14.7    284.31464    3500.7351    10252.255   -2200.8046   -2200.4531 
        14.8    298.31443    3663.4195    10252.255   -2200.9756   -2200.4529 
        14.9    295.62056     3930.193    10252.255   -2200.1671   -2200.4496 
          15    311.65846     3891.513    10252.255   -2200.6515   -2200.4514 
        15.1     292.9798    3881.7477    10252.255   -2198.9379   -2200.4489 
        15.2    313.07704    3663.6208    10252.255     -2200.49    -2200.453 
        15.3    294.25538    3547.4423    10252.255   -2200.7037   -2200.4528 
        15.4    278.72002     3389.299    10252.255    -2200.514   -2200.4524 
        15.5    278.43024     3715.398    10252.255   -2199.6186   -2200.4495 
        15.6    310.06957    3721.4165    10252.255   -2200.4853   -2200.4522 
        15.7    292.00085    3636.0261    10252.255   -2199.2087   -2200.4509 
        15.8     307.1444    3717.7734    10252.255   -2200.5247   -2200.4515 
        15.9     309.6073    3640.8639    10252.255   -2201.3799   -2200.4522 
          16    284.48319     3450.621    10252.255   -2200.4098   -2200.4536 
        16.1    283.28625     3568.859    10252.255   -2201.1504   -2200.4519 
        16.2    285.25601    3446.8845    10252.255   -2200.8698    -2200.453 
        16.3    295.53879     3437.934    10252.255   -2199.8854   -2200.4526 
        16.4    296.17224    3851.3653    10252.255   -2199.2662   -2200.4491 
        16.5    312.48321    3744.4782    10252.255   -2200.7023   -2200.4521 
        16.6    293.79367     3713.492    10252.255    -2200.699   -2200.4526 
        16.7    293.07489    3820.9795    10252.255   -2201.7898   -2200.4512 
        16.8    298.39989    3568.5131    10252.255   -2201.6425   -2200.4538 
        16.9     295.4457    3914.0606    10252.255    -2200.076   -2200.4504 
          17    304.66764    3697.0501    10252.255   -2200.5459   -2200.4515 
        17.1    297.23124    3455.4293    10252.255   -2199.9078    -2200.454 
        17.2    288.13825    3522.1477    10252.255   -2199.3677   -2200.4508 
        17.3    265.26641    3486.1144    10252.255   -2198.2681    -2200.449 
        17.4    284.80862    3433.8912    10252.255   -2200.3972   -2200.4532 
        17.5    289.87283    3834.7476    10252.255   -2201.0286    -2200.451 
        17.6    324.30084    3884.5067    10252.255   -2202.1346   -2200.4533 
        17.7    334.83834    3969.4918    10252.255   -2201.4678   -2200.4531 
        17.8    329.19479    4112.1263    10252.255   -2201.2182   -2200.4512 
        17.9    308.35063    3714.8017    10252.255   -2200.8385   -2200.4528 
          18     274.6123     3809.187    10252.255   -2199.1849   -2200.4492 
        18.1    289.00363    3853.5171    10252.255   -2200.0598   -2200.4497 
        18.2    301.68858    3762.6532    10252.255   -2200.6491   -2200.4524 
        18.3    302.20465    3717.2218    10252.255   -2200.3762   -2200.4529 
        18.4    307.56386    3648.4962    10252.255   -2200.2624   -2200.4518 
        18.5    307.30054    3839.5536    10252.255   -2199.3557   -2200.4513 
        18.6    287.48451    3850.6233    10252.255   -2197.9159    -2200.448 
        18.7    314.93998    3893.2231    10252.255   -2201.2293   -2200.4523 
        18.8    297.21923    3777.7417    10252.255   -2201.0116   -2200.4524 
        18.9    299.40761    3642.8182    10252.255    -2200.885   -2200.4531 
          19    294.24688    3592.8278    10252.255   -2199.6068   -2200.4515 
        19.1    306.77104    3885.5271    10252.255    -2198.943   -2200.4489 
        19.2    312.31623    3708.2917    10252.255   -2199.1023   -2200.4512 
        19.3    319.39615    3832.5232    10252.255   -2202.0947   -2200.4539 
        19.4    288.52482    3879.8245    10252.255   -2200.5105   -2200.4502 
        19.5    286.35767    3761.2934    10252.255   -2199.8128   -2200.4503 
        19.6    321.80428    3818.7916    10252.255   -2200.9569   -2200.4532 
        19.7    311.57273     3845.926    10252.255   -2199.9755   -2200.4522 
        19.8    304.09605    3886.0693    10252.255   -2200.4569   -2200.4504 
        19.9    290.02962    3644.9855    10252.255   -2201.1672   -2200.4531 
          20    296.78033    3509.9348    10252.255   -2201.3107   -2200.4542 
        20.1    268.35021    3528.4303    10252.255   -2198.4761    -2200.451 
        20.2    286.30324    3590.2297    10252.255   -2198.9913   -2200.4511 
        20.3    286.01307    3663.0895    10252.255   -2199.0109   -2200.4508 
        20.4    294.69563    3800.7237    10252.255   -2199.8703   -2200.4512 
        20.5    304.67325    3864.2935    10252.255   -2200.6065   -2200.4516 
        20.6    295.76787    3773.4622    10252.255   -2200.1281   -2200.4512 
        20.7    311.68841    3864.7741    10252.255    -2200.977   -2200.4515 
        20.8    327.41969    3775.7835    10252.255   -2202.1176   -2200.4544 
        20.9    308.05195    3810.5624    10252.255   -2200.8145   -2200.4516 
          21    300.65114     3727.022    10252.255   -2200.2984   -2200.4518 
        21.1    312.67062    3738.5763    10252.255   -2201.1005    -2200.452 
        21.2    264.56201    3543.0854    10252.255   -2198.1034   -2200.4492 
        21.3    298.39257    3632.1919    10252.255   -2200.4262    -2200.452 
        21.4    314.87827    3769.3582    10252.255   -2201.5379   -2200.4535 
        21.5    287.00374    3663.3328    10252.255   -2199.5247   -2200.4517 
        21.6    311.34776    3818.2063    10252.255   -2200.3902   -2200.4517 
        21.7    302.91849    3850.6824    10252.255   -2199.3412   -2200.4495 
        21.8    288.97204    3670.0954    10252.255   -2198.9931   -2200.4507 
        21.9    282.56115    3754.7705    10252.255   -2200.1483   -2200.4508 
          22    280.30493    3721.7026    10252.255      -2200.3   -2200.4505 
        22.1    310.89436    3602.7349    10252.255   -2201.4727   -2200.4549 
        22.2    324.18771    3655.3754    10252.255    -2201.485   -2200.4541 
        22.3    301.88431    3811.1643    10252.255   -2199.9342   -2200.4506 
        22.4     302.4652    3834.4769    10252.255   -2200.3312   -2200.4513 
        22.5     325.0219    3939.1803    10252.255   -2202.0968   -2200.4525 
        22.6    304.70249    3745.0065    10252.255   -2201.5381   -2200.4526 
        22.7     275.4587    3565.4114    10252.255   -2200.4915   -2200.4524 
        22.8    275.91373    3298.8606    10252.255   -2200.2296   -2200.4522 
        22.9    310.63732    3597.1282    10252.255   -2200.7157   -2200.4541 
          23    327.78592    3728.1772    10252.255   -2201.3691   -2200.4535 
        23.1      286.966    3988.3234    10252.255   -2199.0226    -2200.448 
        23.2    293.13051    3923.7539    10252.255   -2200.6595   -2200.4515 
        23.3    286.17743    3594.4637    10252.255   -2201.3732   -2200.4538 
        23.4    289.79242    3697.3408    10252.255    -2200.624   -2200.4531 
        23.5    297.07194    3933.4631    10252.255   -2199.1498   -2200.4502 
        23.6    301.15496    3824.7918    10252.255    -2199.602   -2200.4514 
        23.7    328.72514    3827.8239    10252.255     -2202.36    -2200.454 
        23.8     277.8264    3572.8796    10252.255    -2199.944   -2200.4518 
        23.9    299.35364    3473.5388    10252.255   -2201.1602   -2200.4543 
          24    298.81185     3827.797    10252.255    -2199.206   -2200.4507 
        24.1    303.11926    3796.8616    10252.255   -2198.9202     -2200.45 
        24.2    313.17395    3852.7545    10252.255   -2200.5253   -2200.4516 
        24.3    307.32094    4043.9173    10252.255   -2200.8945   -2200.4507 
        24.4    293.72928    3622.8408    10252.255   -2200.3877   -2200.4522 
        24.5    304.24767    3750.4501    10252.255   -2200.8313   -2200.4532 
        24.6     289.2218    3704.8181    10252.255   -2199.4461   -2200.4498 
        24.7     316.1263    3764.7809    10252.255   -2199.2117   -2200.4524 
        24.8    331.31098      4039.36    10252.255   -2199.7229   -2200.4508 
        24.9    290.89063    4063.0219    10252.255   -2198.6657    -2200.448 
          25     305.2761    3774.5638    10252.255    -2200.795    -2200.453 
        25.1     301.0642    3710.0166    10252.255   -2200.9369   -2200.4528 
        25.2    299.25152    3763.6511    10252.255   -2200.7744   -2200.4525 
        25.3    300.24927    3841.0138    10252.255   -2199.5757   -2200.4512 
        25.4    291.25406    3919.0787    10252.255    -2197.779   -2200.4486 
        25.5    301.07516    3694.9523    10252.255   -2199.2334   -2200.4511 
        25.6    298.30811    3641.2245    10252.255   -2200.1866   -2200.4524 
        25.7    280.14692    3719.0638    10252.255   -2199.1966   -2200.4491 
        25.8     295.3406    3796.7924    10252.255   -2200.2729   -2200.4515 
        25.9    336.74281    3856.0811    10252.255   -2202.4939   -2200.4547 
          26    322.29863    3898.7013    10252.255   -2200.4932   -2200.4512 
        26.1    331.23882     4094.145    10252.255   -2200.4067   -2200.4511 
        26.2    309.23287    3907.3849    10252.255   -2200.4092   -2200.4512 
        26.3    302.12573    3921.2295    10252.255   -2201.0724   -2200.4517 
        26.4    291.07117    3800.5259    10252.255   -2200.4104    -2200.451 
        26.5    303.75555    3750.1614    10252.255   -2200.5456   -2200.4524 
        26.6    293.13405    3777.1072    10252.255   -2198.6786   -2200.4507 
        26.7    299.71179    3867.3032    10252.255   -2198.0651    -2200.449 
        26.8    307.10406    4023.4328    10252.255   -2198.3645   -2200.4489 
        26.9      297.823    3905.4918    10252.255    -2199.777   -2200.4508 
          27    300.29928    3677.9593    10252.255   -2200.8497   -2200.4531 
        27.1    296.80404    3688.4725    10252.255   -2200.9068   -2200.4531 
        27.2    285.98951    3785.0027    10252.255   -2199.5622     -2200.45 
        27.3     330.5316    3954.7235    10252.255    -2200.988   -2200.4528 
        27.4     322.4552    4058.1353    10252.255   -2200.1791   -2200.4505 
        27.5    299.15101    3993.1878    10252.255   -2200.2772   -2200.4503 
        27.6    324.58873    3737.2612    10252.255   -2203.0371   -2200.4559 
        27.7    292.53334    3715.5967    10252.255   -2200.4768   -2200.4518 
        27.8    299.67305    3821.2285    10252.255   -2199.8759   -2200.4504 
        27.9    323.40052    3926.9572    10252.255   -2200.6936   -2200.4522 
          28    278.65216    3869.5513    10252.255   -2198.2612   -2200.4485 
        28.1     293.8238     3824.072    10252.255   -2201.0908   -2200.4515 
        28.2    299.74505    3598.8636    10252.255   -2201.7492   -2200.4546 
        28.3    272.62585    3543.9417    10252.255   -2199.1912   -2200.4513 
        28.4    291.25053     3718.158    10252.255   -2199.6132   -2200.4519 
        28.5    303.24995    3607.9569    10252.255   -2200.1923   -2200.4523 
        28.6    284.19603    3714.6974    10252.255   -2199.0581   -2200.4507 
        28.7    318.88428    3957.3591    10252.255   -2201.5232   -2200.4532 
        28.8    293.14433    3793.9829    10252.255   -2199.9457   -2200.4508 
        28.9    304.34758    3855.6543    10252.255   -2200.6167   -2200.4517 
          29    308.28528    3809.6066    10252.255   -2200.8346   -2200.4515 
        29.1    306.62952    3740.7846    10252.255   -2200.5915    -2200.452 
        29.2    305.78862    3967.2266    10252.255   -2200.2832   -2200.4511 
        29.3    314.72338    3765.3565    10252.255    -2200.858   -2200.4519 
        29.4    283.91448    3616.3258    10252.255   -2199.4728   -2200.4504 
        29.5     285.5069    3629.2588    10252.255   -2200.3738   -2200.4518 
        29.6     267.2022    3405.2519    10252.255   -2199.7064   -2200.4516 
        29.7    295.06345    3642.8074    10252.255   -2200.2873   -2200.4515 
        29.8    316.88689    3841.5071    10252.255   -2200.3042    -2200.452 
        29.9    305.58835    3790.1621    10252.255   -2199.7353   -2200.4512 
          30    297.30501    3801.1292    10252.255   -2200.2801   -2200.4513 
        30.1    290.12911    3695.8803    10252.255   -2200.5309   -2200.4517 
        30.2    294.89841    3663.1805    10252.255   -2200.7457   -2200.4525 
        30.3    292.82745    3721.0164    10252.255   -2200.3014   -2200.4519 
        30.4    294.45879    3718.5605    10252.255   -2199.9199   -2200.4512 
        30.5    308.76125    3801.1362    10252.255   -2200.3177   -2200.4513 
        30.6    302.86561    3911.2614    10252.255   -2199.2911   -2200.4499 
        30.7    318.79284    3898.6628    10252.255   -2200.0889   -2200.4506 
        30.8    321.43852    3832.2998    10252.255   -2201.5252   -2200.4531 
        30.9    295.15579     3623.512    10252.255    -2201.002   -2200.4525 
          31    286.11208    3661.1283    10252.255   -2200.3139   -2200.4514 
        31.1    312.33945    3751.3951    10252.255   -2200.8801   -2200.4524 
        31.2    293.10182    3713.1451    10252.255   -2198.3631   -2200.4495 
        31.3    316.64922    3916.5296    10252.255   -2199.9306   -2200.4504 
        31.4    288.77359    3660.7566    10252.255   -2200.7289   -2200.4518 
        31.5    303.00312    3651.9192    10252.255   -2201.7918   -2200.4541 
        31.6    311.95988    3784.3577    10252.255   -2201.3155   -2200.4533 
        31.7    309.91819    3938.7005    10252.255   -2200.0335   -2200.4502 
        31.8    288.04523    3942.0958    10252.255   -2198.5504   -2200.4486 
        31.9    322.19952    3826.7146    10252.255   -2201.9568    -2200.454 
          32    288.56605    3676.7363    10252.255    -2201.151   -2200.4532 
        32.1    280.50843    3690.2234    10252.255   -2200.2884    -2200.452 
        32.2    295.73012    3608.3833    10252.255   -2200.3218   -2200.4521 
        32.3    300.87714    3671.2578    10252.255   -2200.1269   -2200.4516 
        32.4    317.67143    3845.0705    10252.255   -2201.0628   -2200.4528 
        32.5    310.33005    3869.5852    10252.255   -2200.8863   -2200.4519 
        32.6    284.41817    3679.8818    10252.255   -2201.1482   -2200.4521 
        32.7    271.95122    3558.9745    10252.255   -2200.7226   -2200.4522 
        32.8     289.0943    3547.7912    10252.255   -2200.4543   -2200.4518 
        32.9    292.79914    3617.6072    10252.255   -2199.8894   -2200.4515 
          33    316.41969    3875.3831    10252.255    -2200.974   -2200.4529 
        33.1    318.14494     3949.434    10252.255    -2200.973   -2200.4513 
        33.2    277.48171    3683.2465    10252.255   -2199.1802   -2200.4502 
        33.3    283.93391    3600.6844    10252.255   -2200.8321   -2200.4527 
        33.4    282.35902    3544.8638    10252.255   -2200.7469    -2200.453 
        33.5     299.9944    3720.6889    10252.255   -2200.1282   -2200.4521 
        33.6    322.01083    3894.1544    10252.255   -2201.0501   -2200.4529 
        33.7    313.03838     3841.368    10252.255   -2200.8079   -2200.4521 
        33.8     273.8314    3522.0907    10252.255   -2199.0704   -2200.4508 
        33.9    281.99767    3547.2785    10252.255   -2200.6569   -2200.4521 
          34    276.01215    3357.5121    10252.255   -2201.1834   -2200.4543 
        34.1    286.95045    3451.8643    10252.255   -2201.1097   -2200.4539 
        34.2    299.79923     3811.309    10252.255    -2200.119   -2200.4512 
        34.3    299.49079    3908.7934    10252.255   -2199.6121   -2200.4488 
        34.4    306.58929    3968.8896    10252.255   -2200.2141    -2200.451 
        34.5    320.51559    3648.4657    10252.255   -2202.1514   -2200.4545 
        34.6    290.17861    3606.3097    10252.255   -2201.2559    -2200.453 
        34.7    280.50707    3652.7577    10252.255   -2200.2025   -2200.4507 
        34.8    307.91825    3709.2351    10252.255   -2199.8452   -2200.4516 
        34.9    312.93319    3756.5641    10252.255   -2200.1348   -2200.4511 
          35    285.63338    3725.8449    10252.255   -2199.3004   -2200.4497 
        35.1    279.14013    3584.3491    10252.255   -2199.7718   -2200.4512 
        35.2    301.10917    3550.8753    10252.255   -2201.5136   -2200.4541 
        35.3    301.24765     3760.936    10252.255   -2199.9347   -2200.4519 
        35.4    311.28899    3848.9284    10252.255   -2199.4244   -2200.4504 
        35.5    300.36414    3909.1753    10252.255   -2199.4136   -2200.4498 
        35.6    299.19981    3793.9733    10252.255   -2200.6196   -2200.4518 
        35.7    312.87644    3817.4974    10252.255   -2201.7832   -2200.4521 
        35.8    306.22441    3730.5669    10252.255    -2201.092   -2200.4524 
        35.9    299.38363    3673.6148    10252.255   -2200.2915   -2200.4522 
          36    301.24188    3790.4833    10252.255   -2200.1504   -2200.4507 
        36.1    297.06634    3600.4906    10252.255   -2199.9767   -2200.4514 
        36.2    307.06847    3673.8354    10252.255   -2200.7047   -2200.4518 
        36.3    315.14262    3892.6806    10252.255   -2201.3635   -2200.4511 
        36.4    278.76284    3587.8364    10252.255   -2199.6003    -2200.451 
        36.5    296.32784    3611.0414    10252.255   -2201.5213   -2200.4529 
        36.6    288.92557    3616.5346    10252.255   -2200.9005   -2200.4524 
        36.7    289.77277    3559.4704    10252.255   -2199.4309   -2200.4516 
        36.8    302.88037    3792.2538    10252.255   -2199.5537   -2200.4501 
        36.9    317.70107    3757.3795    10252.255   -2200.8397    -2200.452 
          37    290.67694    3571.0553    10252.255   -2200.0331   -2200.4522 
        37.1    297.24117    3613.0036    10252.255   -2201.1204   -2200.4527 
        37.2    277.93341    3426.8201    10252.255   -2201.7602   -2200.4541 
        37.3    271.23036    3531.3443    10252.255   -2201.4094   -2200.4531 
        37.4    301.09017    3755.2426    10252.255   -2201.6569   -2200.4523 
        37.5    308.73546     3819.871    10252.255   -2201.1315   -2200.4519 
        37.6     309.3927    3823.6748    10252.255   -2200.3128   -2200.4513 
        37.7    301.49777     3670.207    10252.255   -2199.5163   -2200.4513 
        37.8    288.21838    3573.5146    10252.255   -2199.5078   -2200.4509 
        37.9    279.60808    3420.3415    10252.255   -2200.5974   -2200.4527 
          38     283.6722    3509.1377    10252.255   -2200.6658    -2200.452 
        38.1    289.07082    3614.6724    10252.255   -2200.1394   -2200.4516 
        38.2     301.5732      3792.74    10252.255   -2200.3266   -2200.4511 
        38.3    301.38517    3736.3037    10252.255   -2200.1764    -2200.451 
        38.4    301.08577    3678.0447    10252.255   -2200.2818   -2200.4514 
        38.5    305.89843    3682.6943    10252.255   -2201.0329   -2200.4536 
        38.6    288.67308    3634.8473    10252.255   -2201.1393   -2200.4527 
        38.7    294.04413    3569.7241    10252.255   -2201.5342   -2200.4534 
        38.8    285.63009    3721.5396    10252.255   -2199.4389   -2200.4497 
        38.9    302.90671    3788.0879    10252.255   -2199.7886   -2200.4509 
          39    304.81786    3671.0772    10252.255   -2200.1189   -2200.4525 
        39.1    311.50555    3760.2588    10252.255   -2201.3711   -2200.4532 
        39.2    284.27075    3659.6766    10252.255   -2201.0516   -2200.4517 
        39.3     273.4589    3475.9283    10252.255   -2201.2161   -2200.4527 
        39.4    290.07418    3670.5292    10252.255   -2200.2579   -2200.4517 
        39.5    302.79832     3672.747    10252.255   -2199.9816   -2200.4517 
        39.6    290.87208    3694.6455    10252.255   -2198.9097   -2200.4498 
        39.7    288.17528    3639.9819    10252.255   -2199.3151   -2200.4501 
        39.8    303.34198    3616.9648    10252.255   -2201.2782    -2200.454 
        39.9    284.94313    3644.9043    10252.255   -2200.7232   -2200.4516 
          40    304.47941    3693.0472    10252.255   -2201.2173    -2200.453 
        40.1    328.44711    3921.2359    10252.255   -2200.9561   -2200.4516 
        40.2    325.50602    3908.8778    10252.255   -2200.8276   -2200.4512 
        40.3    297.74408    3594.2932    10252.255   -2200.2121   -2200.4517 
        40.4    304.91812    3682.4711    10252.255   -2201.5059   -2200.4531 
        40.5    288.69899     3576.788    10252.255   -2200.3345   -2200.4517 
        40.6    289.01496    3594.2273    10252.255   -2199.8881   -2200.4509 
        40.7    305.96238    3765.7906    10252.255   -2200.6974   -2200.4519 
        40.8    304.72592    3658.5838    10252.255    -2200.568   -2200.4525 
        40.9    301.74597    3665.3505    10252.255   -2200.2772   -2200.4514 
          41    300.62348    3787.7525    10252.255   -2200.5887    -2200.451 
        41.1    280.67801    3585.5974    10252.255   -2200.1195   -2200.4517 
        41.2    296.39351    3667.4256    10252.255   -2201.0399   -2200.4519 
        41.3    305.62796    3764.4082    10252.255   -2200.4704   -2200.4508 
        41.4    303.89122    3764.2796    10252.255   -2199.3724   -2200.4501 
        41.5     307.4597    3732.7984    10252.255   -2199.9661   -2200.4506 
        41.6    303.35105    3509.0414    10252.255   -2200.8931   -2200.4534 
        41.7    284.51046    3492.0094    10252.255   -2200.7024   -2200.4514 
        41.8    310.05085    3720.5338    10252.255   -2202.0115   -2200.4534 
        41.9    302.66086    3799.7754    10252.255     -2199.34   -2200.4497 
          42    316.84015    3899.0933    10252.255   -2199.8191   -2200.4505 
        42.1      310.639    3730.3693    10252.255   -2200.5402   -2200.4505 
        42.2    288.71263    3476.3123    10252.255   -2200.3497   -2200.4525 
        42.3    291.19425    3583.0139    10252.255   -2200.6917   -2200.4523 
        42.4     309.0849    3613.5624    10252.255   -2200.9096   -2200.4525 
        42.5    302.62284    3791.3205    10252.255   -2198.9201   -2200.4491 
        42.6    298.72709    3886.3776    10252.255   -2198.8758   -2200.4491 
        42.7    288.03577    3668.0345    10252.255   -2199.0117   -2200.4498 
        42.8    301.78055     3645.918    10252.255   -2200.4512   -2200.4519 
        42.9    304.54737    3610.3989    10252.255   -2200.9306   -2200.4528 
          43    301.15736    3768.0479    10252.255   -2200.6144   -2200.4506 
        43.1    305.72315    3813.1504    10252.255    -2199.827   -2200.4511 
        43.2    317.07614    3734.4017    10252.255   -2199.5588    -2200.451 
        43.3    292.98172    3745.9218    10252.255   -2198.9066   -2200.4494 
        43.4    286.78832    3609.3456    10252.255   -2199.8501   -2200.4507 
        43.5    296.57007    3457.3534    10252.255   -2200.8195   -2200.4533 
        43.6    319.99489    3623.9714    10252.255   -2201.8564   -2200.4538 
        43.7    296.11129    3710.7847    10252.255   -2199.5397   -2200.4499 
        43.8    323.12018    3817.4366    10252.255   -2199.3203   -2200.4507 
        43.9    311.00351    3985.9192    10252.255   -2198.2369   -2200.4476 
          44    302.89397    3883.2959    10252.255   -2199.1228   -2200.4498 
        44.1    311.29846    3733.0248    10252.255   -2200.7076   -2200.4518 
        44.2     296.5346    3753.9188    10252.255   -2200.5026   -2200.4516 
        44.3    298.45418    3643.9221    10252.255    -2201.056   -2200.4524 
        44.4    302.76245    3697.3797    10252.255   -2200.8226   -2200.4522 
        44.5     288.1632    3783.0511    10252.255    -2198.154   -2200.4485 
        44.6    298.92005    3754.5756    10252.255   -2198.6776   -2200.4493 
        44.7     319.3364      3663.92    10252.255   -2201.2598   -2200.4537 
        44.8     289.1624    3643.5154    10252.255   -2199.9487   -2200.4504 
        44.9     293.6103    3713.6874    10252.255   -2200.3058   -2200.4511 
          45    316.44329    3857.4871    10252.255   -2201.2721   -2200.4519 
        45.1    298.74201     3768.526    10252.255   -2199.4779     -2200.45 
        45.2    325.21905    3946.7928    10252.255   -2199.6987   -2200.4501 
        45.3    312.92317    3853.5496    10252.255   -2199.1539   -2200.4501 
        45.4    311.68881    3770.4927    10252.255   -2200.8837   -2200.4521 
        45.5    304.83716    3674.0296    10252.255   -2200.9924   -2200.4522 
        45.6    301.88221    3896.4765    10252.255   -2200.7202   -2200.4505 
        45.7    301.23345     3809.932    10252.255   -2200.2479   -2200.4513 
        45.8    318.44174    3848.2999    10252.255   -2200.0264   -2200.4511 
        45.9    307.92572    3863.5048    10252.255   -2198.7996   -2200.4494 
          46    306.54877    3692.1623    10252.255   -2200.5481   -2200.4528 
        46.1    287.15683    3595.7554    10252.255    -2200.204   -2200.4516 
        46.2    289.08288    3709.5739    10252.255   -2200.1108   -2200.4509 
        46.3    297.63344    3622.6394    10252.255   -2199.8732   -2200.4509 
        46.4    303.56119    3748.4916    10252.255   -2199.0342   -2200.4507 
        46.5    299.26978    3791.6887    10252.255   -2198.6511     -2200.45 
        46.6    293.16943    3786.0205    10252.255   -2200.4726   -2200.4508 
        46.7     298.7869    3664.3257    10252.255   -2201.3886   -2200.4525 
        46.8    305.52076    3799.3135    10252.255   -2201.0847   -2200.4519 
        46.9    312.09489    3878.2419    10252.255   -2200.3896    -2200.451 
          47    319.66041    3804.7246    10252.255   -2200.3703   -2200.4519 
        47.1    286.36078    3623.7968    10252.255   -2199.4963   -2200.4506 
        47.2    299.17049     3463.661    10252.255   -2201.8669    -2200.455 
        47.3    286.42435    3573.2001    10252.255   -2200.5574   -2200.4524 
        47.4    290.00715     3714.147    10252.255   -2199.5379   -2200.4501 
        47.5    313.02792    3777.6297    10252.255   -2200.4924   -2200.4522 
        47.6     299.6044    3708.5913    10252.255   -2199.8171   -2200.4514 
        47.7    280.91493    3591.6722    10252.255   -2199.6871   -2200.4503 
        47.8    280.27885    3512.0816    10252.255   -2201.4522   -2200.4542 
        47.9    270.81039    3450.2794    10252.255   -2200.2061   -2200.4522 
          48    290.07044     3724.685    10252.255   -2200.1862   -2200.4507 
        48.1    298.88928    3647.2096    10252.255   -2200.0069   -2200.4521 
        48.2    303.23844    3712.0488    10252.255   -2199.9068   -2200.4509 
        48.3    310.60197     3764.322    10252.255   -2200.7679    -2200.452 
        48.4    301.53356    3610.7392    10252.255   -2201.8803   -2200.4539 
        48.5    287.77578    3586.5942    10252.255    -2201.358   -2200.4526 
        48.6     298.7153    3780.0584    10252.255   -2200.7362   -2200.4506 
        48.7    294.47303    3558.0488    10252.255    -2199.786   -2200.4514 
        48.8    322.82251    3726.0505    10252.255    -2201.408   -2200.4526 
        48.9    315.99345    3632.7826    10252.255   -2201.3347   -2200.4529 
          49    278.26016    3448.7875    10252.255   -2199.9004    -2200.452 
        49.1    268.75569     3468.769    10252.255   -2200.4944   -2200.4515 
        49.2    283.29033    3500.8975    10252.255   -2200.7074   -2200.4524 
        49.3    302.45641    3619.9038    10252.255   -2200.4625   -2200.4525 
        49.4    322.35173    3935.8873    10252.255   -2201.3701   -2200.4522 
        49.5    302.68146    3841.8806    10252.255   -2200.2511   -2200.4502 
        49.6    295.89338    3672.7192    10252.255    -2200.419   -2200.4513 
        49.7    300.51342     3574.757    10252.255   -2201.8203   -2200.4537 
        49.8    290.58016     3490.835    10252.255   -2201.6126   -2200.4543 
        49.9    285.44296    3724.8538    10252.255    -2199.522   -2200.4495 
          50    294.93059    3896.2202    10252.255   -2199.1234   -2200.4486 
Loop time of 75.2572 on 1 procs for 50000 steps with 512 atoms

Performance: 57.403 ns/day, 0.418 hours/ns, 664.388 timesteps/s
99.7% CPU use with 1 MPI tasks x no OpenMP threads

MPI task timing breakdown:
Section |  min time  |  avg time  |  max time  |%varavg| %total
---------------------------------------------------------------
Pair    | 72.74      | 72.74      | 72.74      |   0.0 | 96.66
Neigh   | 0          | 0          | 0          |   0.0 |  0.00
Comm    | 0.45554    | 0.45554    | 0.45554    |   0.0 |  0.61
Output  | 0.99957    | 0.99957    | 0.99957    |   0.0 |  1.33
Modify  | 0.83879    | 0.83879    | 0.83879    |   0.0 |  1.11
Other   |            | 0.2234     |            |       |  0.30

Nlocal:        512.000 ave         512 max         512 min
Histogram: 1 0 0 0 0 0 0 0 0 0
Nghost:        1450.00 ave        1450 max        1450 min
Histogram: 1 0 0 0 0 0 0 0 0 0
Neighs:         0.00000 ave           0 max           0 min
Histogram: 1 0 0 0 0 0 0 0 0 0
FullNghs:      17408.0 ave       17408 max       17408 min
Histogram: 1 0 0 0 0 0 0 0 0 0

Total # of neighbors = 17408
Ave neighs/atom = 34.000000
Neighbor list builds = 0
Dangerous builds = 0
System init for write_data ...
System init for write_restart ...
Total wall time: 0:01:15
