ITEM: TIMESTEP
0
ITEM: NUMBER OF ATOMS
64
ITEM: BOX BOUNDS xy xz yz pp pp pp
0.0000000000000000e+00 1.0864000000000001e+01 0.0000000000000000e+00
0.0000000000000000e+00 1.0864000000000001e+01 0.0000000000000000e+00
0.0000000000000000e+00 1.0864000000000001e+01 0.0000000000000000e+00
ITEM: ATOMS id type x y z
1 1 1.358 4.074 1.358
2 1 0 0 2.716
3 1 1.358 1.358 4.074
4 1 0 2.716 0
5 1 4.074 4.074 4.074
6 1 2.716 0 0
7 1 4.074 1.358 1.358
8 1 2.716 2.716 2.716
9 1 1.358 4.074 6.79
10 1 0 0 8.148
11 1 1.358 1.358 9.506
12 1 0 2.716 5.432
13 1 4.074 4.074 9.506
14 1 2.716 0 5.432
15 1 4.074 1.358 6.79
16 1 2.716 2.716 8.148
17 1 1.358 9.506 1.358
18 1 0 5.432 2.716
19 1 1.358 6.79 4.074
20 1 0 8.148 0
21 1 4.074 9.506 4.074
22 1 2.716 5.432 0
23 1 4.074 6.79 1.358
24 1 2.716 8.148 2.716
25 1 1.358 9.506 6.79
26 1 0 5.432 8.148
27 1 1.358 6.79 9.506
28 1 0 8.148 5.432
29 1 4.074 9.506 9.506
30 1 2.716 5.432 5.432
31 1 4.074 6.79 6.79
32 1 2.716 8.148 8.148
33 1 6.79 4.074 1.358
34 1 5.432 0 2.716
35 1 6.79 1.358 4.074
36 1 5.432 2.716 0
37 1 9.506 4.074 4.074
38 1 8.148 0 0
39 1 9.506 1.358 1.358
40 1 8.148 2.716 2.716
41 1 6.79 4.074 6.79
42 1 5.432 0 8.148
43 1 6.79 1.358 9.506
44 1 5.432 2.716 5.432
45 1 9.506 4.074 9.506
46 1 8.148 0 5.432
47 1 9.506 1.358 6.79
48 1 8.148 2.716 8.148
49 1 6.79 9.506 1.358
50 1 5.432 5.432 2.716
51 1 6.79 6.79 4.074
52 1 5.432 8.148 0
53 1 9.506 9.506 4.074
54 1 8.148 5.432 0
55 1 9.506 6.79 1.358
56 1 8.148 8.148 2.716
57 1 6.79 9.506 6.79
58 1 5.432 5.432 8.148
59 1 6.79 6.79 9.506
60 1 5.432 8.148 5.432
61 1 9.506 9.506 9.506
62 1 8.148 5.432 5.432
63 1 9.506 6.79 6.79
64 1 8.148 8.148 8.148
ITEM: TIMESTEP
1
ITEM: NUMBER OF ATOMS
64
ITEM: BOX BOUNDS xy xz yz pp pp pp
0.0000000000000000e+00 1.0864000000000001e+01 0.0000000000000000e+00
0.0000000000000000e+00 1.0864000000000001e+01 0.0000000000000000e+00
0.0000000000000000e+00 1.0864000000000001e+01 0.0000000000000000e+00
ITEM: ATOMS id type x y z
1 1 1.358 4.074 1.358
2 1 -4.27667e-16 -3.45424e-16 2.716
3 1 1.358 1.358 4.074
4 1 -6.5795e-17 2.716 0
5 1 4.074 4.074 4.074
6 1 2.716 -3.28975e-17 -3.28975e-17
7 1 4.074 1.358 1.358
8 1 2.716 2.716 2.716
9 1 1.358 4.074 6.79
10 1 -3.28975e-16 -3.28975e-16 8.148
11 1 1.358 1.358 9.506
12 1 -1.3159e-16 2.716 5.432
13 1 4.074 4.074 9.506
14 1 2.716 3.28975e-17 5.432
15 1 4.074 1.358 6.79
16 1 2.716 2.716 8.148
17 1 1.358 9.506 1.358
18 1 -3.61872e-16 5.432 2.716
19 1 1.358 6.79 4.074
20 1 -4.93462e-16 8.148 -1.48039e-16
21 1 4.074 9.506 4.074
22 1 2.716 5.432 -6.6823e-17
23 1 4.074 6.79 1.358
24 1 2.716 8.148 2.716
25 1 1.358 9.506 6.79
26 1 -3.28975e-16 5.432 8.148
27 1 1.358 6.79 9.506
28 1 -5.59257e-16 8.148 5.432
29 1 4.074 9.506 9.506
30 1 2.716 5.432 5.432
31 1 4.074 6.79 6.79
32 1 2.716 8.148 8.148
33 1 6.79 4.074 1.358
34 1 5.432 -3.03274e-17 2.716
35 1 6.79 1.358 4.074
36 1 5.432 2.716 -6.5795e-17
37 1 9.506 4.074 4.074
38 1 8.148 -5.2636e-16 -1.48039e-16
39 1 9.506 1.358 1.358
40 1 8.148 2.716 2.716
41 1 6.79 4.074 6.79
42 1 5.432 1.60889e-16 8.148
43 1 6.79 1.358 9.506
44 1 5.432 2.716 5.432
45 1 9.506 4.074 9.506
46 1 8.148 -5.92155e-16 5.432
47 1 9.506 1.358 6.79
48 1 8.148 2.716 8.148
49 1 6.79 9.506 1.358
50 1 5.432 5.432 2.716
51 1 6.79 6.79 4.074
52 1 5.432 8.148 9.86924e-17
53 1 9.506 9.506 4.074
54 1 8.148 5.432 1.59861e-16
55 1 9.506 6.79 1.358
56 1 8.148 8.148 2.716
57 1 6.79 9.506 6.79
58 1 5.432 5.432 8.148
59 1 6.79 6.79 9.506
60 1 5.432 8.148 5.432
61 1 9.506 9.506 9.506
62 1 8.148 5.432 5.432
63 1 9.506 6.79 6.79
64 1 8.148 8.148 8.148
