ITEM: TIMESTEP
0
ITEM: NUMBER OF ATOMS
64
ITEM: BOX BOUNDS xy xz yz pp pp pp
0.0000000000000000e+00 1.0859999999999999e+01 0.0000000000000000e+00
0.0000000000000000e+00 1.0859999999999999e+01 0.0000000000000000e+00
0.0000000000000000e+00 1.0859999999999999e+01 0.0000000000000000e+00
ITEM: ATOMS id type x y z
1 1 1.3575 4.0725 1.3575
2 1 0 0 2.715
3 1 1.3575 1.3575 4.0725
4 1 0 2.715 0
5 1 4.0725 4.0725 4.0725
6 1 2.715 0 0
7 1 4.0725 1.3575 1.3575
8 1 2.715 2.715 2.715
9 1 1.3575 4.0725 6.7875
10 1 0 0 8.145
11 1 1.3575 1.3575 9.5025
12 1 0 2.715 5.43
13 1 4.0725 4.0725 9.5025
14 1 2.715 0 5.43
15 1 4.0725 1.3575 6.7875
16 1 2.715 2.715 8.145
17 1 1.3575 9.5025 1.3575
18 1 0 5.43 2.715
19 1 1.3575 6.7875 4.0725
20 1 0 8.145 0
21 1 4.0725 9.5025 4.0725
22 1 2.715 5.43 0
23 1 4.0725 6.7875 1.3575
24 1 2.715 8.145 2.715
25 1 1.3575 9.5025 6.7875
26 1 0 5.43 8.145
27 1 1.3575 6.7875 9.5025
28 1 0 8.145 5.43
29 1 4.0725 9.5025 9.5025
30 1 2.715 5.43 5.43
31 1 4.0725 6.7875 6.7875
32 1 2.715 8.145 8.145
33 1 6.7875 4.0725 1.3575
34 1 5.43 0 2.715
35 1 6.7875 1.3575 4.0725
36 1 5.43 2.715 0
37 1 9.5025 4.0725 4.0725
38 1 8.145 0 0
39 1 9.5025 1.3575 1.3575
40 1 8.145 2.715 2.715
41 1 6.7875 4.0725 6.7875
42 1 5.43 0 8.145
43 1 6.7875 1.3575 9.5025
44 1 5.43 2.715 5.43
45 1 9.5025 4.0725 9.5025
46 1 8.145 0 5.43
47 1 9.5025 1.3575 6.7875
48 1 8.145 2.715 8.145
49 1 6.7875 9.5025 1.3575
50 1 5.43 5.43 2.715
51 1 6.7875 6.7875 4.0725
52 1 5.43 8.145 0
53 1 9.5025 9.5025 4.0725
54 1 8.145 5.43 0
55 1 9.5025 6.7875 1.3575
56 1 8.145 8.145 2.715
57 1 6.7875 9.5025 6.7875
58 1 5.43 5.43 8.145
59 1 6.7875 6.7875 9.5025
60 1 5.43 8.145 5.43
61 1 9.5025 9.5025 9.5025
62 1 8.145 5.43 5.43
63 1 9.5025 6.7875 6.7875
64 1 8.145 8.145 8.145
ITEM: TIMESTEP
1
ITEM: NUMBER OF ATOMS
64
ITEM: BOX BOUNDS xy xz yz pp pp pp
0.0000000000000000e+00 1.0859999999999999e+01 0.0000000000000000e+00
0.0000000000000000e+00 1.0859999999999999e+01 0.0000000000000000e+00
0.0000000000000000e+00 1.0859999999999999e+01 0.0000000000000000e+00
ITEM: ATOMS id type x y z
1 1 1.3575 4.0725 1.3575
2 1 0 0 2.715
3 1 1.3575 1.3575 4.0725
4 1 0 2.715 0
5 1 4.0725 4.0725 4.0725
6 1 2.715 0 0
7 1 4.0725 1.3575 1.3575
8 1 2.715 2.715 2.715
9 1 1.3575 4.0725 6.7875
10 1 0 0 8.145
11 1 1.3575 1.3575 9.5025
12 1 0 2.715 5.43
13 1 4.0725 4.0725 9.5025
14 1 2.715 0 5.43
15 1 4.0725 1.3575 6.7875
16 1 2.715 2.715 8.145
17 1 1.3575 9.5025 1.3575
18 1 0 5.43 2.715
19 1 1.3575 6.7875 4.0725
20 1 0 8.145 0
21 1 4.0725 9.5025 4.0725
22 1 2.715 5.43 0
23 1 4.0725 6.7875 1.3575
24 1 2.715 8.145 2.715
25 1 1.3575 9.5025 6.7875
26 1 0 5.43 8.145
27 1 1.3575 6.7875 9.5025
28 1 0 8.145 5.43
29 1 4.0725 9.5025 9.5025
30 1 2.715 5.43 5.43
31 1 4.0725 6.7875 6.7875
32 1 2.715 8.145 8.145
33 1 6.7875 4.0725 1.3575
34 1 5.43 0 2.715
35 1 6.7875 1.3575 4.0725
36 1 5.43 2.715 0
37 1 9.5025 4.0725 4.0725
38 1 8.145 0 0
39 1 9.5025 1.3575 1.3575
40 1 8.145 2.715 2.715
41 1 6.7875 4.0725 6.7875
42 1 5.43 0 8.145
43 1 6.7875 1.3575 9.5025
44 1 5.43 2.715 5.43
45 1 9.5025 4.0725 9.5025
46 1 8.145 0 5.43
47 1 9.5025 1.3575 6.7875
48 1 8.145 2.715 8.145
49 1 6.7875 9.5025 1.3575
50 1 5.43 5.43 2.715
51 1 6.7875 6.7875 4.0725
52 1 5.43 8.145 0
53 1 9.5025 9.5025 4.0725
54 1 8.145 5.43 0
55 1 9.5025 6.7875 1.3575
56 1 8.145 8.145 2.715
57 1 6.7875 9.5025 6.7875
58 1 5.43 5.43 8.145
59 1 6.7875 6.7875 9.5025
60 1 5.43 8.145 5.43
61 1 9.5025 9.5025 9.5025
62 1 8.145 5.43 5.43
63 1 9.5025 6.7875 6.7875
64 1 8.145 8.145 8.145
