ITEM: TIMESTEP
0
ITEM: NUMBER OF ATOMS
54
ITEM: BOX BOUNDS xy xz yz pp pp pp
0.0000000000000000e+00 9.7289999999999992e+00 0.0000000000000000e+00
0.0000000000000000e+00 9.7289999999999992e+00 0.0000000000000000e+00
0.0000000000000000e+00 9.7289999999999992e+00 0.0000000000000000e+00
ITEM: ATOMS id type x y z
1 1 0 0 0
2 1 1.6215 1.6215 1.6215
3 1 0 0 3.243
4 1 1.6215 1.6215 4.8645
5 1 0 0 6.486
6 1 1.6215 1.6215 8.1075
7 1 0 3.243 0
8 1 1.6215 4.8645 1.6215
9 1 0 3.243 3.243
10 1 1.6215 4.8645 4.8645
11 1 0 3.243 6.486
12 1 1.6215 4.8645 8.1075
13 1 0 6.486 0
14 1 1.6215 8.1075 1.6215
15 1 0 6.486 3.243
16 1 1.6215 8.1075 4.8645
17 1 0 6.486 6.486
18 1 1.6215 8.1075 8.1075
19 1 3.243 0 0
20 1 4.8645 1.6215 1.6215
21 1 3.243 0 3.243
22 1 4.8645 1.6215 4.8645
23 1 3.243 0 6.486
24 1 4.8645 1.6215 8.1075
25 1 3.243 3.243 0
26 1 4.8645 4.8645 1.6215
27 1 3.243 3.243 3.243
28 1 4.8645 4.8645 4.8645
29 1 3.243 3.243 6.486
30 1 4.8645 4.8645 8.1075
31 1 3.243 6.486 0
32 1 4.8645 8.1075 1.6215
33 1 3.243 6.486 3.243
34 1 4.8645 8.1075 4.8645
35 1 3.243 6.486 6.486
36 1 4.8645 8.1075 8.1075
37 1 6.486 0 0
38 1 8.1075 1.6215 1.6215
39 1 6.486 0 3.243
40 1 8.1075 1.6215 4.8645
41 1 6.486 0 6.486
42 1 8.1075 1.6215 8.1075
43 1 6.486 3.243 0
44 1 8.1075 4.8645 1.6215
45 1 6.486 3.243 3.243
46 1 8.1075 4.8645 4.8645
47 1 6.486 3.243 6.486
48 1 8.1075 4.8645 8.1075
49 1 6.486 6.486 0
50 1 8.1075 8.1075 1.6215
51 1 6.486 6.486 3.243
52 1 8.1075 8.1075 4.8645
53 1 6.486 6.486 6.486
54 1 8.1075 8.1075 8.1075
ITEM: TIMESTEP
1
ITEM: NUMBER OF ATOMS
54
ITEM: BOX BOUNDS xy xz yz pp pp pp
0.0000000000000000e+00 9.7289999999999992e+00 0.0000000000000000e+00
0.0000000000000000e+00 9.7289999999999992e+00 0.0000000000000000e+00
0.0000000000000000e+00 9.7289999999999992e+00 0.0000000000000000e+00
ITEM: ATOMS id type x y z
1 1 -4.50751e-14 -4.50751e-14 -4.55191e-14
2 1 1.6215 1.6215 1.6215
3 1 -4.37428e-14 -4.37428e-14 3.243
4 1 1.6215 1.6215 4.8645
5 1 -4.4853e-14 -4.52971e-14 6.486
6 1 1.6215 1.6215 8.1075
7 1 -4.52971e-14 3.243 -4.44089e-14
8 1 1.6215 4.8645 1.6215
9 1 -4.95159e-14 3.243 3.243
10 1 1.6215 4.8645 4.8645
11 1 -4.64073e-14 3.243 6.486
12 1 1.6215 4.8645 8.1075
13 1 -4.61853e-14 6.486 -4.57412e-14
14 1 1.6215 8.1075 1.6215
15 1 -4.50751e-14 6.486 3.243
16 1 1.6215 8.1075 4.8645
17 1 -3.9746e-14 6.486 6.486
18 1 1.6215 8.1075 8.1075
19 1 3.243 -4.4631e-14 -4.50751e-14
20 1 4.8645 1.6215 1.6215
21 1 3.243 -4.84057e-14 3.243
22 1 4.8645 1.6215 4.8645
23 1 3.243 -4.61853e-14 6.486
24 1 4.8645 1.6215 8.1075
25 1 3.243 3.243 -4.57412e-14
26 1 4.8645 4.8645 1.6215
27 1 3.243 3.243 3.243
28 1 4.8645 4.8645 4.8645
29 1 3.243 3.243 6.486
30 1 4.8645 4.8645 8.1075
31 1 3.243 6.486 -4.35207e-14
32 1 4.8645 8.1075 1.6215
33 1 3.243 6.486 3.243
34 1 4.8645 8.1075 4.8645
35 1 3.243 6.486 6.486
36 1 4.8645 8.1075 8.1075
37 1 6.486 -4.59632e-14 -4.59632e-14
38 1 8.1075 1.6215 1.6215
39 1 6.486 -4.4853e-14 3.243
40 1 8.1075 1.6215 4.8645
41 1 6.486 -3.9968e-14 6.486
42 1 8.1075 1.6215 8.1075
43 1 6.486 3.243 -4.26326e-14
44 1 8.1075 4.8645 1.6215
45 1 6.486 3.243 3.243
46 1 8.1075 4.8645 4.8645
47 1 6.486 3.243 6.486
48 1 8.1075 4.8645 8.1075
49 1 6.486 6.486 -4.04121e-14
50 1 8.1075 8.1075 1.6215
51 1 6.486 6.486 3.243
52 1 8.1075 8.1075 4.8645
53 1 6.486 6.486 6.486
54 1 8.1075 8.1075 8.1075
