LAMMPS (29 Sep 2021)
# SW potential for Silicon

units		metal
dimension       3
processors      * * *
boundary	p p p

#read data
atom_style      atomic

# read restart
#read_restart    S300K.rest

#read data
read_data	lammps_dia_md.dat
Reading data file ...
  triclinic box = (0.0000000 0.0000000 0.0000000) to (21.720000 21.720000 21.720000) with tilt (0.0000000 0.0000000 0.0000000)
  1 by 1 by 1 MPI processor grid
  reading atoms ...
  512 atoms
  read_data CPU = 0.011 seconds

#potential
pair_style      edip
pair_coeff      * * Si.edip Si
Reading potential file Si.edip with DATE: 2011-09-15

neighbor        2.0 bin
neigh_modify    every 1 delay 1 check yes


#outputs
velocity all create 300.0 121 mom yes dist gaussian
thermo		100
thermo_style	custom time temp press vol pe econserve
#dump		2 all custom 1000 md.lammpstrj id type x y z

timestep        1e-3

#replicate unit cell
#replicate       4 4 4

#initial minimization
#minimize 1.0e-10 1.0e-10 1 1

#initial mixing
#fix             1 all nve temp 300 300 0.1 # 100 dt
#run             10000
#unfix           1

fix             1 all npt temp 300 300 0.1 iso 0.0 0.0 1.0
run             50000
Neighbor list info ...
  update every 1 steps, delay 1 steps, check yes
  max neighbors/atom: 2000, page size: 100000
  master list distance cutoff = 5.121382
  ghost atom cutoff = 5.121382
  binsize = 2.560691, bins = 9 9 9
  1 neighbor lists, perpetual/occasional/extra = 1 0 0
  (1) pair edip, perpetual
      attributes: full, newton on
      pair build: full/bin/atomonly
      stencil: full/bin/3d
      bin: standard
Per MPI rank memory allocation (min/avg/max) = 3.094 | 3.094 | 3.094 Mbytes
Time Temp Press Volume PotEng Econserve 
           0          300    2341.9092    10246.592   -2380.7761   -2360.9605 
         0.1    126.02369   -1205.6463    10263.445    -2367.218   -2360.9351 
         0.2    189.51527   -267.02998    10257.151   -2367.8686   -2360.9391 
         0.3    227.47114    488.52471    10254.849   -2366.1554   -2360.9377 
         0.4    269.41782   -668.92845    10268.472   -2364.4049   -2360.9372 
         0.5    273.93717    975.08642    10251.206   -2360.4636   -2360.9329 
         0.6    294.65041   -797.24579    10269.088   -2358.6621   -2360.9335 
         0.7    361.60969    603.96118     10262.77   -2361.8333   -2360.9439 
         0.8    305.73651    676.64299    10254.095    -2359.449   -2360.9379 
         0.9    253.49163   -925.91183    10271.079   -2358.4204   -2360.9471 
           1    281.15529    1001.8681    10253.449   -2361.2411   -2360.9575 
         1.1    278.23055   -404.35889    10263.132   -2360.4305   -2360.9603 
         1.2    328.18688   -261.81902    10268.387   -2361.9456   -2360.9712 
         1.3    297.82156    832.76275    10250.156   -2358.8816   -2360.9748 
         1.4    349.81692   -1048.8054    10276.466   -2362.4337    -2360.991 
         1.5    259.77421    425.32954    10252.733   -2357.9807   -2360.9933 
         1.6    263.45366   -401.94565    10261.846   -2359.3508   -2361.0079 
         1.7    294.95269   -1085.4158    10274.958   -2361.5541   -2361.0248 
         1.8    291.57509     2001.997    10241.526   -2360.2226   -2361.0324 
         1.9    272.21182   -2493.6471    10281.747   -2357.7573   -2361.0367 
           2    302.72717    456.23038    10257.251   -2359.4563   -2361.0476 
         2.1    284.81252    1488.3986    10250.019   -2359.2138   -2361.0591 
         2.2     285.0819   -3151.1908    10289.634   -2360.0787   -2361.0589 
         2.3    277.24147     3114.859    10230.655   -2360.1585   -2361.0685 
         2.4    294.37648   -1875.9063    10282.864   -2360.7701   -2361.0725 
         2.5     305.1173   -4.6007897    10264.498   -2360.4031   -2361.0724 
         2.6    290.80228    2344.0805    10235.591   -2358.6481    -2361.069 
         2.7    336.67181   -3104.3091    10299.583   -2362.1379   -2361.0804 
         2.8    328.73667    3244.7609     10231.28   -2363.1417   -2361.0802 
         2.9    265.61607   -1225.6054    10271.974   -2359.5164   -2361.0758 
           3    305.71551   -1559.8966     10277.51   -2361.5813   -2361.0786 
         3.1    318.51228    3693.3351    10227.834   -2361.9343     -2361.08 
         3.2    307.38656   -3412.2126     10300.63   -2360.8528   -2361.0795 
         3.3     298.2833    2140.7556     10240.99   -2360.0528   -2361.0756 
         3.4    285.30542    339.26745    10257.956   -2359.5429   -2361.0726 
         3.5    281.24033   -2710.0544    10290.675   -2360.4793    -2361.074 
         3.6    260.79693    3370.8676    10226.131   -2359.3417   -2361.0696 
         3.7    285.98078    -3014.323    10291.858   -2359.8336    -2361.067 
         3.8    313.90337    1333.4406    10254.679   -2360.5191    -2361.067 
         3.9    305.56042    1500.6601    10247.931   -2360.0915   -2361.0618 
           4    274.93861   -3218.3192    10293.733   -2358.6222   -2361.0562 
         4.1    295.08733    2492.9962    10233.901    -2360.369   -2361.0526 
         4.2    302.86265   -1597.9384    10279.536   -2360.9538   -2361.0515 
         4.3    294.47393   -417.14106    10266.736   -2360.3352   -2361.0472 
         4.4    293.91236    1604.4336    10245.043   -2360.0254   -2361.0403 
         4.5     334.1249   -2163.8944    10286.886   -2362.2127   -2361.0394 
         4.6    325.28245    2184.8503    10243.251   -2360.8097    -2361.034 
         4.7    296.55288    -1265.098    10272.022   -2358.5626   -2361.0241 
         4.8    292.41164   -906.26647    10270.757   -2359.6849   -2361.0239 
         4.9    314.37284    1931.5741    10244.208   -2362.2428    -2361.022 
           5    316.81492   -1511.2643    10282.089   -2362.3084   -2361.0198 
         5.1    288.16543      1302.89    10251.392   -2359.7208   -2361.0108 
         5.2    298.70589   -63.959737    10262.983   -2359.2154   -2361.0036 
         5.3    349.10245   -1030.0297    10275.804   -2360.6218   -2361.0017 
         5.4    306.49203    1378.5716    10247.126   -2358.1685   -2360.9936 
         5.5    319.67961   -1038.7402    10277.867    -2361.486   -2360.9947 
         5.6    294.41211    528.84095    10257.893   -2360.5079    -2360.987 
         5.7    312.56706    654.70443    10256.761   -2361.9721   -2360.9843 
         5.8    297.25031    -1473.835    10277.533   -2360.7462    -2360.976 
         5.9    292.70441    817.44788    10250.716   -2359.4454   -2360.9673 
           6     328.2962   -351.08953    10270.605        -2361   -2360.9665 
         6.1    308.09004   -469.90651    10266.004     -2359.81   -2360.9539 
         6.2    298.14026    989.08146    10253.119   -2361.1098   -2360.9517 
         6.3    301.52643   -1046.7017    10273.952   -2361.7819   -2360.9445 
         6.4    301.21988    868.27943    10254.455   -2361.0493   -2360.9346 
         6.5    315.92673    118.28273    10263.962   -2360.6973   -2360.9269 
         6.6    308.84448   -319.56651    10267.723   -2360.0277   -2360.9158 
         6.7    317.63279    914.05231    10256.487   -2361.0067   -2360.9104 
         6.8    281.14658   -765.74117    10267.592   -2359.1021   -2360.8966 
         6.9    296.54939    77.607974    10261.284   -2360.5295   -2360.8904 
           7    298.56306    163.53267    10262.142   -2361.3506   -2360.8855 
         7.1    281.54427   -278.94345    10264.669   -2361.0636   -2360.8757 
         7.2    286.22608     188.3784    10260.594   -2361.3187   -2360.8701 
         7.3    297.84654   -414.22602    10266.525    -2360.358    -2360.861 
         7.4    321.89396    583.80784    10260.304   -2361.2374   -2360.8576 
         7.5    290.41492   -456.98634    10263.746   -2359.2549   -2360.8472 
         7.6    289.04782   -499.17806    10265.975   -2360.2873    -2360.846 
         7.7    303.23856    496.95492     10258.94   -2362.7296    -2360.847 
         7.8    287.22202   -311.98996    10266.201   -2361.4975   -2360.8405 
         7.9    264.74783   -82.191216    10259.729   -2358.2215   -2360.8317 
           8    296.62459    213.87611    10261.871   -2360.1085   -2360.8351 
         8.1    319.10509   -435.89446    10268.867   -2361.4717   -2360.8349 
         8.2    277.09516    683.37306    10255.285    -2359.027   -2360.8299 
         8.3    311.05418   -118.16958    10265.251   -2361.6533   -2360.8326 
         8.4    289.59086   -352.12822    10265.443   -2360.7886   -2360.8337 
         8.5    289.60331    278.98308     10257.26   -2360.5143   -2360.8323 
         8.6    300.30063   -485.90301    10268.238   -2359.8463   -2360.8321 
         8.7    304.82967    479.58003    10258.886   -2359.3646   -2360.8328 
         8.8    303.57952    178.71277    10261.424   -2360.1292   -2360.8361 
         8.9    308.43864   -200.96274    10267.855   -2362.0028   -2360.8425 
           9    284.15554    563.96436    10254.964    -2360.457   -2360.8417 
         9.1    292.17434   -334.52988    10264.747    -2360.332   -2360.8464 
         9.2    292.26631   -221.44505    10264.234   -2359.5401   -2360.8516 
         9.3    322.08102     744.3846    10257.849   -2360.7528   -2360.8622 
         9.4    323.79929   -149.83954    10265.118   -2361.1455   -2360.8714 
         9.5    296.73501   -107.49951    10261.373   -2361.0714   -2360.8853 
         9.6    295.36544   -67.302586    10262.302   -2361.6114   -2360.9036 
         9.7    287.42456   -249.51463    10262.289   -2360.2179   -2360.9199 
         9.8    305.56579    21.899448    10261.159   -2360.0941   -2360.9396 
         9.9    296.50412    -329.2296    10265.644   -2359.3337   -2360.9565 
          10     300.8651    158.12719    10258.055    -2360.082   -2360.9709 
        10.1    303.93346   -435.39115    10267.389   -2360.7411   -2360.9824 
        10.2    287.76956    157.68596    10258.789   -2360.1796   -2360.9882 
        10.3    287.12874    270.02909    10259.359   -2360.5354   -2360.9969 
        10.4    286.03832   -624.81368    10269.134   -2360.8701   -2361.0026 
        10.5    300.82042    1123.9365    10251.927   -2361.1805   -2361.0084 
        10.6     285.5132   -765.53483    10267.762    -2359.004   -2361.0104 
        10.7    289.47071   -598.88431    10267.615   -2358.6547   -2361.0141 
        10.8    301.59507    1607.7603    10247.792   -2360.2107   -2361.0213 
        10.9    293.65639   -1449.5388    10276.247    -2361.453   -2361.0284 
          11     298.2982    899.96369    10255.168   -2361.7325   -2361.0349 
        11.1    303.06597    452.14552    10256.995   -2361.1458   -2361.0386 
        11.2    295.50575   -1509.5022    10276.516   -2359.8492   -2361.0424 
        11.3    314.11543    1843.9161    10246.319   -2360.8559    -2361.051 
        11.4    297.09204   -1417.7194    10274.302   -2360.2353   -2361.0558 
        11.5    298.33501   -87.116414    10262.799    -2362.499   -2361.0659 
        11.6     304.7699    1745.5779    10248.232    -2362.816   -2361.0729 
        11.7    295.62892   -1964.5461    10282.659   -2360.8185   -2361.0777 
        11.8    301.45833    1306.1636    10247.753   -2360.4903   -2361.0833 
        11.9    310.65495   -519.09629    10267.278   -2360.6666   -2361.0885 
          12    307.28581   -415.87899    10269.821   -2360.6168   -2361.0989 
        12.1    293.33299    1741.9251    10245.101   -2360.9299   -2361.1059 
        12.2    291.41527   -2144.8935      10284.7   -2361.7961   -2361.1137 
        12.3    297.38736    1838.6182    10244.238   -2361.3891     -2361.12 
        12.4     315.2182   -210.91616      10266.1   -2361.1628   -2361.1266 
        12.5    282.32051   -1971.4201     10280.05   -2358.8941    -2361.131 
        12.6    311.62141     3013.263     10232.26   -2361.0437   -2361.1397 
        12.7    311.70602   -2902.8059    10294.695   -2361.8372   -2361.1481 
        12.8    275.11526    1876.6678     10241.75   -2360.7184   -2361.1506 
        12.9    266.11753    110.83316    10258.041   -2360.6902   -2361.1572 
          13    292.81441   -3468.2928    10295.286   -2360.4684   -2361.1601 
        13.1       303.25    4641.1628    10215.788   -2360.1369   -2361.1629 
        13.2    291.10931   -3587.7177    10299.291   -2359.4182    -2361.166 
        13.3    294.94903    789.17924    10255.173   -2360.3297   -2361.1688 
        13.4    285.19094    2462.6231    10237.428   -2360.8309   -2361.1702 
        13.5    275.65332   -4631.6227    10306.806   -2360.8239   -2361.1693 
        13.6    302.14392    4544.9308    10218.636   -2360.9516   -2361.1685 
        13.7    283.64758   -2573.6234    10284.957    -2358.536   -2361.1631 
        13.8    335.05165   -799.64936    10273.442   -2361.9798   -2361.1651 
        13.9    304.55933    3558.6997    10227.291   -2360.9951   -2361.1598 
          14    284.23706   -4081.5939    10302.374   -2360.6224    -2361.154 
        14.1    300.14827    2545.3192     10236.54   -2361.8782   -2361.1508 
        14.2    315.39382   -251.29241    10265.991   -2360.8518   -2361.1435 
        14.3    318.43583   -1552.8437    10279.657   -2360.3145   -2361.1374 
        14.4    304.50724    2572.8114    10236.868    -2360.091   -2361.1301 
        14.5    296.21729   -2220.6208    10284.957   -2360.8529   -2361.1252 
        14.6    301.04849    1109.7277    10250.729   -2361.4836   -2361.1186 
        14.7    295.75152    342.58824    10259.407   -2360.7168    -2361.112 
        14.8    303.45148   -1415.5708    10277.765   -2360.5297   -2361.1056 
        14.9    294.72774     1814.078    10242.722   -2359.8636   -2361.0973 
          15    314.17859   -1477.7934    10279.032   -2361.2617    -2361.095 
        15.1    282.09726    596.49633     10256.08   -2359.6535   -2361.0868 
        15.2     286.1315    364.66109     10257.37   -2360.3149   -2361.0817 
        15.3    293.55743   -1376.5768    10276.327   -2361.2524   -2361.0785 
        15.4    296.63608     1804.191    10245.551     -2360.88    -2361.073 
        15.5    300.69382   -1265.3697    10273.625   -2359.7022   -2361.0668 
        15.6    298.50365   -131.11014    10264.625   -2359.1269   -2361.0618 
        15.7    304.29924     1448.543    10248.785   -2360.4045   -2361.0599 
        15.8    282.57068   -1861.8192    10279.548   -2360.3133   -2361.0556 
        15.9    288.39222    1121.3892    10250.316   -2360.8161    -2361.055 
          16    291.57367   -392.81156    10265.515   -2360.3974   -2361.0493 
        16.1    299.16348   -553.98161     10270.04   -2360.1046   -2361.0467 
        16.2    306.85911    1445.3042    10247.523   -2359.8131   -2361.0429 
        16.3    311.41502   -1429.2462     10276.47   -2360.3855   -2361.0423 
        16.4    284.36428    231.99158    10257.679   -2360.4597   -2361.0388 
        16.5    282.09738    679.28937    10256.772   -2360.8261   -2361.0383 
        16.6    316.62142   -754.18205    10272.158   -2362.0886   -2361.0379 
        16.7    307.42354    682.87829    10254.654   -2360.4617   -2361.0325 
        16.8    292.04407   -903.92677    10269.254    -2359.313   -2361.0274 
        16.9    302.04382    172.56283    10261.169   -2360.3321   -2361.0277 
          17     306.5848    673.09963    10258.337   -2361.0009   -2361.0262 
        17.1    285.21075   -1011.6484    10271.306   -2359.9538   -2361.0206 
        17.2    300.73575    538.22789    10256.585   -2361.6299   -2361.0192 
        17.3    276.38375    -204.0673     10264.42   -2360.7917    -2361.015 
        17.4    293.93494   -90.033302    10264.355   -2360.9908   -2361.0092 
        17.5    311.38497    610.82038    10258.824    -2360.808   -2361.0066 
        17.6    302.83359   -816.36197    10269.922   -2359.7406    -2360.998 
        17.7    308.67537    910.95788    10256.364   -2360.7778   -2360.9968 
        17.8    279.91398   -494.45028    10267.164    -2360.642   -2360.9929 
        17.9    276.72646    -213.0676    10264.493   -2361.0657   -2360.9882 
          18    302.25196    628.08556    10256.789   -2361.9311   -2360.9865 
        18.1    290.88341   -482.03115    10267.904   -2360.2335   -2360.9803 
        18.2    309.74964    535.82679    10260.575   -2360.6765   -2360.9793 
        18.3    297.32921    -260.7706    10263.138   -2359.6083   -2360.9727 
        18.4    319.03578   -40.485958    10265.654   -2362.0014    -2360.975 
        18.5    278.93685    499.77627    10256.668   -2361.1097   -2360.9715 
        18.6    285.67925   -734.07348    10268.694   -2360.9755   -2360.9704 
        18.7    303.28302    230.86996    10262.201   -2360.8548   -2360.9701 
        18.8    310.40303    228.47126    10260.601   -2360.6791   -2360.9671 
        18.9    312.22798   -375.86109    10267.145   -2360.9604   -2360.9701 
          19    289.76647    166.18962    10260.418   -2359.9362    -2360.968 
        19.1    285.94389   -263.68724    10264.171   -2361.4286   -2360.9714 
        19.2    285.74501   -96.944737     10263.68   -2361.8101   -2360.9734 
        19.3    294.86671    559.45219    10257.988   -2361.1351   -2360.9755 
        19.4     312.1497   -629.82451    10270.163   -2361.4509   -2360.9794 
        19.5    288.21444    206.32434    10258.983   -2359.4856   -2360.9785 
        19.6    306.20832    27.435563    10264.675   -2360.4937   -2360.9858 
        19.7    300.65695   -321.06615    10267.555   -2360.0765   -2360.9901 
        19.8    297.28718    594.33236    10256.826   -2360.5108   -2360.9964 
        19.9    285.06746   -667.88977    10269.748   -2360.7034   -2361.0047 
          20    288.29853    116.16071    10260.966   -2360.9314   -2361.0103 
        20.1    300.39353    231.40188    10261.877   -2360.1409   -2361.0186 
        20.2    317.64611   -638.98287    10271.452   -2360.2977   -2361.0256 
        20.3    303.71151    867.58574    10255.285   -2359.9128   -2361.0356 
        20.4    314.34635   -492.11159    10268.957    -2361.389   -2361.0459 
        20.5    310.66743   -103.51803    10265.636   -2361.5687   -2361.0554 
        20.6    308.31874    824.43935    10255.248   -2361.3846   -2361.0637 
        20.7    292.77092   -1251.7599    10275.954    -2360.214   -2361.0709 
        20.8    308.22712    884.12606    10254.632   -2361.0548   -2361.0807 
        20.9    320.82939   -394.44485    10268.175   -2361.5175   -2361.0881 
          21    313.17872   -267.34595    10269.529   -2360.8519   -2361.0955 
        21.1    290.94318    1061.3402    10251.695   -2359.2131   -2361.0991 
        21.2    303.60733    -1619.473    10280.778   -2360.5031   -2361.1067 
        21.3     296.0304    960.92786    10253.575   -2361.0286   -2361.1135 
        21.4     284.8164    -131.8985    10264.553   -2360.8391   -2361.1188 
        21.5    293.72744   -925.02012    10277.053   -2360.4038   -2361.1244 
        21.6    307.78136     2196.469    10243.836    -2359.664    -2361.127 
        21.7    302.37304   -2288.2284    10286.536   -2359.5339   -2361.1307 
        21.8    289.27766    1134.8752     10254.44   -2359.8556   -2361.1364 
        21.9    282.88278    733.34827    10257.523   -2360.0525   -2361.1402 
          22    297.59533   -2172.6011    10286.856   -2360.9206   -2361.1454 
        22.1    299.60588    2637.4926     10238.14   -2360.7089    -2361.148 
        22.2    293.85856   -1773.2791    10283.315    -2360.164   -2361.1519 
        22.3    306.14715    144.46981    10264.494   -2360.5955   -2361.1548 
        22.4    301.51349    1820.9784    10245.725   -2360.0645   -2361.1568 
        22.5    300.59616    -3051.633    10295.643   -2359.6913     -2361.16 
        22.6    302.42718    2539.0051    10239.642   -2360.1133   -2361.1633 
        22.7    299.50463   -599.88628    10272.934   -2360.9609   -2361.1678 
        22.8     289.8217   -1173.9415    10275.663   -2361.0845   -2361.1701 
        22.9    280.99947     2388.286    10238.967   -2360.0297   -2361.1716 
          23    299.42676   -3011.3279    10294.678   -2359.2732   -2361.1725 
        23.1    303.44927    1948.0997    10245.705   -2359.3452   -2361.1754 
        23.2    313.09896    46.095928    10264.921   -2360.9899   -2361.1804 
        23.3    301.71057    -1998.385    10284.411   -2360.9938   -2361.1838 
        23.4     281.1523     2813.158    10232.911   -2359.7687   -2361.1831 
        23.5    291.31488   -3088.0222    10294.613     -2360.16   -2361.1861 
        23.6    297.84756    1465.2773    10249.776   -2360.4262   -2361.1901 
        23.7    313.72135    723.57724    10256.854   -2361.2314   -2361.1938 
        23.8    284.68828   -3272.2648    10294.171   -2359.1405   -2361.1922 
        23.9    303.48265    3922.2855    10226.759   -2359.9548   -2361.1964 
          24    314.06041   -2667.4384    10293.176   -2360.6171   -2361.1997 
        24.1    288.18288    364.27949    10260.787   -2359.7439   -2361.1994 
        24.2    282.70335    2518.7274    10237.734   -2360.4423    -2361.203 
        24.3    282.09193   -4347.2531    10306.715   -2360.5101   -2361.2041 
        24.4    299.41829    4107.6124    10224.528   -2359.8933   -2361.2048 
        24.5    311.47096   -1665.4977     10281.37   -2359.7228    -2361.203 
        24.6     287.0515   -1351.3448    10277.415    -2358.904   -2361.2015 
        24.7    318.04049     3911.767    10226.955   -2361.8638   -2361.2046 
        24.8    291.36517   -4241.1984    10306.328   -2360.6356   -2361.1993 
        24.9    304.64113     2760.133    10238.159    -2361.126    -2361.196 
          25    313.64374    118.36197    10263.708   -2359.3219   -2361.1881 
        25.1    311.43769   -2595.5462    10289.354   -2359.0606   -2361.1799 
        25.2    327.84029    3464.6434    10231.939   -2361.6684   -2361.1777 
        25.3    304.99368    -2595.964    10290.741   -2361.1587   -2361.1672 
        25.4    307.96371    842.42828    10255.237   -2361.6406   -2361.1593 
        25.5    308.31568    972.66197    10255.733   -2361.1503   -2361.1491 
        25.6     320.5588   -1886.4138    10285.863   -2360.2018   -2361.1391 
        25.7    321.60082    2056.3966    10244.278   -2359.9863   -2361.1291 
        25.8    288.37736   -1502.3392    10277.318    -2359.114   -2361.1193 
        25.9     311.2964    162.66458    10265.286   -2361.0969   -2361.1154 
          26     301.3969     1082.356    10253.924   -2360.7403   -2361.1077 
        26.1    296.10861   -1606.8929    10280.712   -2360.4294    -2361.101 
        26.2    301.48708    1342.4628    10250.629   -2360.5652   -2361.0955 
        26.3    299.37936   -773.46638    10271.955   -2359.6428   -2361.0895 
        26.4    307.33238   -341.88881    10268.792   -2359.5256    -2361.085 
        26.5    302.41349    1002.2922    10254.094   -2359.9465   -2361.0821 
        26.6    283.00779   -1419.3033     10277.24   -2360.2992   -2361.0775 
        26.7    304.47209    1031.1026    10256.133   -2361.8406   -2361.0789 
        26.8    297.80122   -92.080566     10265.77   -2360.6752    -2361.073 
        26.9    311.84156   -606.31463    10271.842   -2360.8308   -2361.0718 
          27    309.82531    1315.5482    10252.836   -2360.5714   -2361.0705 
        27.1    301.25084     -1315.47    10277.325   -2360.1309   -2361.0681 
        27.2    307.56476    515.74917    10259.773   -2360.9386   -2361.0687 
        27.3    308.52844     544.2573    10260.438   -2361.4385   -2361.0684 
        27.4    305.34695   -891.99994    10274.497   -2361.9983    -2361.071 
        27.5    287.42274    1063.5013    10252.795   -2361.4281   -2361.0704 
        27.6     310.2208   -645.03368    10271.672   -2361.8868   -2361.0715 
        27.7    315.20667    324.23843    10263.824   -2360.8331   -2361.0726 
        27.8    301.81725    500.98957    10258.157   -2359.7395   -2361.0723 
        27.9    285.07347   -1438.8843    10277.952   -2359.3503   -2361.0749 
          28    298.91914    1168.1476    10252.704   -2361.6887   -2361.0821 
        28.1    277.78905   -418.51768    10268.884   -2361.4376   -2361.0865 
        28.2    290.03749   -320.97018    10268.532   -2361.5162   -2361.0922 
        28.3    284.37682    1123.4835     10252.89   -2360.3349   -2361.0968 
        28.4    303.20668   -1403.7467    10279.319   -2360.5665   -2361.1048 
        28.5    298.28969    1176.2818    10254.101   -2359.4623   -2361.1129 
        28.6    298.60634    30.520425    10265.451   -2359.4432   -2361.1238 
        28.7    296.64089   -1280.5758    10277.002    -2360.918   -2361.1365 
        28.8    285.71578    2078.0727    10242.288   -2361.0655   -2361.1483 
        28.9    278.25387   -2257.7189     10286.76   -2359.9375    -2361.159 
          29    300.76596     1009.278     10254.91   -2360.2411   -2361.1699 
        29.1    299.94671    691.13787    10255.098   -2359.9753   -2361.1798 
        29.2    309.71784     -2811.29    10294.647   -2360.7593   -2361.1906 
        29.3    302.05679     3837.579    10228.376   -2360.7839   -2361.1978 
        29.4    287.92679   -2543.7396    10289.755   -2360.8316   -2361.2029 
        29.5    284.59354    53.281389    10263.924   -2361.8912   -2361.2088 
        29.6    281.49427    2622.3473    10237.737   -2360.7392   -2361.2111 
        29.7    291.72672   -4238.5614    10306.051   -2359.9548   -2361.2102 
        29.8     316.9848    4017.4108    10228.226   -2361.2085   -2361.2155 
        29.9    314.00183   -1404.0786    10279.942   -2361.0003   -2361.2152 
          30    270.85194   -1861.9608    10280.373   -2358.6264   -2361.2119 
        30.1     289.2812    3456.1873    10228.348   -2361.0584   -2361.2155 
        30.2    286.77186   -4055.9635    10304.722   -2361.2499   -2361.2136 
        30.3    300.69206    2376.2047    10239.959   -2360.7079   -2361.2121 
        30.4    289.40465   -128.00705    10264.983   -2358.8433   -2361.2063 
        30.5     305.6384   -2233.6724    10288.729   -2360.2431   -2361.2076 
        30.6    306.88042    3655.1107    10227.577    -2361.102   -2361.2048 
        30.7    277.52898    -3286.727    10296.951   -2360.2626   -2361.2011 
        30.8    279.19833    1276.4877    10250.103   -2360.6914   -2361.1985 
        30.9    295.26362    1090.0195    10253.826   -2360.3405   -2361.1938 
          31    322.97864   -2402.6566    10292.918   -2360.8529    -2361.192 
        31.1    300.54485    3245.5753    10231.773   -2359.4734   -2361.1851 
        31.2    294.58966   -2118.3728     10286.18   -2360.3569   -2361.1842 
        31.3    280.11369    58.108988    10261.586    -2360.386   -2361.1787 
        31.4    295.48804    1747.1058    10246.475    -2361.096   -2361.1754 
        31.5    291.28955   -2632.7242    10290.951   -2360.2969   -2361.1709 
        31.6    301.75102    2400.0179    10239.459   -2360.6351   -2361.1654 
        31.7    291.28185   -1091.5094    10275.119   -2359.7931   -2361.1607 
        31.8    303.31681   -875.51524     10271.08   -2360.2301   -2361.1551 
        31.9    305.50849    1871.4514    10244.507   -2359.8472   -2361.1507 
          32    304.91716    -2441.011    10288.586   -2359.6765   -2361.1455 
        32.1    285.02402    1177.5384    10249.732   -2359.5423   -2361.1405 
        32.2     295.4335    11.281289    10263.799   -2361.2818   -2361.1377 
        32.3    313.21352   -890.12223    10275.379   -2362.3458   -2361.1358 
        32.4     301.4912    1604.0295    10246.767   -2359.8738   -2361.1247 
        32.5    317.44876   -1608.5856    10279.978    -2360.045   -2361.1207 
        32.6    307.88241    859.32256    10257.829   -2360.0972    -2361.116 
        32.7     302.7376    758.63698     10256.23   -2360.8622   -2361.1099 
        32.8    290.46968   -1526.4612    10278.373   -2360.5776   -2361.1044 
        32.9    295.49021    1160.8311    10251.494   -2360.7309    -2361.099 
          33    324.36696   -659.61009    10271.878   -2360.5069   -2361.0908 
        33.1    319.50873    249.46114    10264.231   -2359.7839   -2361.0828 
        33.2    302.56179    527.63758     10257.84   -2359.8816   -2361.0748 
        33.3    300.95151   -1025.5759    10273.952   -2360.8053    -2361.068 
        33.4     292.8684    840.56873    10255.226   -2360.4666   -2361.0569 
        33.5    306.23753    -143.9867      10265.9   -2361.0535   -2361.0477 
        33.6    306.95473   -413.95717    10267.042   -2359.7122    -2361.035 
        33.7    319.84112     259.8927    10259.753   -2359.3692   -2361.0235 
        33.8    307.01323   -565.93053    10269.676   -2359.6422   -2361.0125 
        33.9    303.19477    533.84602    10257.948   -2360.4893   -2361.0035 
          34     291.3934   -283.91164    10266.555   -2360.0588   -2360.9926 
        34.1    303.83034   -251.63195    10267.066   -2361.0523   -2360.9861 
        34.2    319.74558    498.87087    10258.698   -2361.9847   -2360.9792 
        34.3    298.08073   -447.24156     10268.53   -2359.7494   -2360.9701 
        34.4    323.53449    224.18773    10262.548   -2360.5294   -2360.9664 
        34.5    296.72342   -178.13749    10265.154   -2359.2133   -2360.9598 
        34.6    293.53504    -140.3799    10265.315   -2360.7691   -2360.9608 
        34.7    289.99929    290.37961    10259.846   -2360.8447   -2360.9577 
        34.8      286.535   -522.21732    10268.433   -2360.0638   -2360.9556 
        34.9    305.92598    297.62531    10262.932   -2360.4461   -2360.9565 
          35    304.56881    288.40919     10261.67   -2359.9471   -2360.9546 
        35.1    299.59682   -188.20376    10267.162   -2360.3068   -2360.9558 
        35.2    279.04587    74.194419    10261.149   -2360.5883   -2360.9569 
        35.3    294.14567   -114.25535    10266.409   -2361.5573   -2360.9606 
        35.4    301.56115    283.38713    10263.222   -2360.6393   -2360.9599 
        35.5    317.86373    350.89137    10262.657   -2360.8199   -2360.9616 
        35.6    318.90457   -616.11276    10269.284   -2360.9634   -2360.9632 
        35.7    300.57738    344.50815    10260.835   -2361.0013   -2360.9671 
        35.8    290.91362   -182.87618    10265.454    -2361.782   -2360.9702 
        35.9    290.97695   -282.05506    10264.753   -2361.3632    -2360.973 
          36    296.36296    132.82384    10262.793   -2360.8719   -2360.9766 
        36.1    300.62045   -650.19746     10268.69   -2360.3647   -2360.9781 
        36.2    307.62974    396.89706    10260.674   -2360.4562    -2360.983 
        36.3    307.59111    151.90293    10264.709   -2360.4384   -2360.9866 
        36.4    295.42602    -353.7629    10268.117    -2360.865   -2360.9928 
        36.5    266.79872    217.26122    10259.928   -2359.8891   -2360.9954 
        36.6    292.07385   -390.18348    10268.501   -2361.0094   -2361.0025 
        36.7     282.8406    151.68187    10262.785   -2358.8484   -2361.0046 
        36.8    303.63947     223.5513    10263.373    -2359.915   -2361.0109 
        36.9    300.54327   -518.13885    10270.945   -2360.1483   -2361.0168 
          37    300.05924    799.89846    10257.008   -2360.9274    -2361.023 
        37.1      288.581   -439.37851    10268.845   -2361.7328   -2361.0302 
        37.2    269.84467   -64.309248    10263.897   -2361.5608   -2361.0355 
        37.3    282.31251    432.92006    10258.321   -2361.1341   -2361.0401 
        37.4    286.87434   -961.90677    10273.431    -2360.499   -2361.0451 
        37.5    305.38555     874.3835    10255.942   -2360.6244   -2361.0497 
        37.6    311.63122    -245.2456    10267.983   -2360.3769   -2361.0555 
        37.7     305.1136   -576.72745    10269.445   -2359.8691   -2361.0582 
        37.8    301.14576    1071.7115    10255.826   -2361.1737   -2361.0663 
        37.9    271.32797   -1083.5228    10274.212   -2360.1582   -2361.0691 
          38    295.55541    572.28922    10257.395    -2361.149    -2361.074 
        38.1    300.52561    21.020918     10264.92   -2360.4711   -2361.0782 
        38.2    299.32858   -704.95642    10271.952    -2360.159    -2361.082 
        38.3    309.21046    1268.7193    10254.409   -2360.8815   -2361.0851 
        38.4    292.11787   -933.97452    10273.707   -2360.0831   -2361.0886 
        38.5    302.14034    310.32789     10261.02   -2361.6997   -2361.0942 
        38.6    274.01193    121.31081    10260.419   -2360.8605   -2361.0967 
        38.7    284.27616   -1214.3803    10275.938   -2360.6391   -2361.1008 
        38.8    313.37329    1538.0441    10250.709   -2361.0101   -2361.1039 
        38.9    297.99108   -1034.6363    10274.567    -2359.739    -2361.106 
          39    284.31626   -401.55995    10265.397   -2359.2803   -2361.1091 
        39.1    289.94597    996.42919    10254.545   -2360.6547   -2361.1149 
        39.2    281.70072   -1382.2787    10277.217   -2361.4224     -2361.12 
        39.3    286.00112    1360.1425    10251.482   -2361.1149   -2361.1243 
        39.4    294.16222    -807.6822    10270.754     -2359.65   -2361.1261 
        39.5    302.80232   -537.46893    10271.785   -2359.9846   -2361.1308 
        39.6    299.53127     1814.646    10246.991    -2360.244   -2361.1349 
        39.7    284.62639   -2042.9506    10284.722   -2360.2079   -2361.1396 
        39.8    278.99848    1241.9283     10250.88   -2360.5144   -2361.1443 
        39.9    293.69941     47.53114    10264.732   -2360.9997   -2361.1491 
          40    319.72673   -1227.2481    10277.984   -2360.8953   -2361.1539 
        40.1    307.94198    1950.1652    10243.725   -2359.7212   -2361.1565 
        40.2    298.51999   -2115.8452    10284.182   -2360.0275   -2361.1608 
        40.3    313.79645    1197.7031    10255.905   -2362.1995   -2361.1702 
        40.4    286.02495    1013.9893      10253.8   -2360.5409   -2361.1716 
        40.5    301.03462   -2602.7065    10290.317   -2361.0916   -2361.1761 
        40.6    315.59519    2921.4995    10236.701   -2361.5719    -2361.182 
        40.7    305.44789   -1772.8287    10283.005   -2360.3203   -2361.1841 
        40.8    304.80051   -92.362882    10265.155    -2359.596   -2361.1861 
        40.9    319.38028    1876.9613     10245.54    -2359.879   -2361.1906 
          41    304.80696   -3275.8165    10297.896   -2359.7344   -2361.1941 
        41.1    289.75088    3058.4591    10233.474   -2360.2492   -2361.1985 
        41.2    280.20921   -1259.0831    10276.902   -2360.0842   -2361.2011 
        41.3    306.80232   -1284.4684    10278.146   -2361.2484   -2361.2044 
        41.4    301.77988    3302.2945    10231.679   -2359.1963   -2361.2026 
        41.5    316.90694   -3730.4879    10303.997   -2359.6932   -2361.2059 
        41.6    310.68578    2560.7986    10239.192   -2360.0288   -2361.2059 
        41.7    306.70523   -145.72016    10264.878   -2360.4618   -2361.2076 
        41.8    295.36406   -2785.7246    10291.785    -2360.486   -2361.2076 
        41.9    296.97597    4038.7884    10224.352   -2361.0876   -2361.2076 
          42    304.64118   -3096.7408    10296.961   -2361.4312   -2361.2072 
        42.1    309.07905    925.59791     10254.94   -2360.2269    -2361.203 
        42.2    312.08072    1532.6975    10249.646   -2359.7533   -2361.2007 
        42.3    305.86093   -3444.6614    10298.927   -2360.2078   -2361.1991 
        42.4    300.39399    3526.5513    10230.615   -2361.2656   -2361.1979 
        42.5    283.99768   -2145.8605    10283.861   -2360.3371   -2361.1925 
        42.6    287.16627   -694.03538    10269.801   -2360.1007   -2361.1873 
        42.7    307.94662    2367.7457    10242.625   -2360.8523   -2361.1838 
        42.8    302.84682   -2758.8884    10293.796   -2360.1036   -2361.1751 
        42.9    296.29681    1879.2337    10244.309   -2359.5304   -2361.1662 
          43    302.76942   -492.88349    10271.697   -2360.3165   -2361.1572 
        43.1    288.52286   -758.39996    10272.013   -2360.2494   -2361.1446 
        43.2    275.07362    1193.7003    10250.794   -2359.8214   -2361.1275 
        43.3    302.58075   -1170.1273    10278.169   -2361.2576   -2361.1133 
        43.4    310.57108    888.88628    10256.932   -2360.1893   -2361.0935 
        43.5    305.16603   -286.61616     10267.45   -2359.4287   -2361.0782 
        43.6    304.19662   -433.10121    10270.848   -2360.1616   -2361.0669 
        43.7    300.83845    1163.4785    10253.919   -2361.2237   -2361.0582 
        43.8    307.29089   -856.80631    10275.134   -2361.6525   -2361.0516 
        43.9    287.83835    589.11191    10259.918   -2359.9019   -2361.0436 
          44     293.0727    294.02588      10262.7   -2359.3728   -2361.0388 
        44.1    312.45425   -874.79723        10274   -2360.1195   -2361.0364 
        44.2    312.86049    983.67759    10256.381   -2360.4845   -2361.0336 
        44.3    291.61461   -638.85384    10270.657   -2360.7973   -2361.0345 
        44.4    277.83867   -312.54548    10267.463   -2360.2908   -2361.0322 
        44.5    300.50682    863.45691     10257.13   -2360.8894   -2361.0326 
        44.6    311.00336   -1321.7713    10277.344   -2360.1282   -2361.0303 
        44.7    306.16677    716.39919    10258.508   -2359.8868   -2361.0311 
        44.8    297.18205   -91.586597    10267.321   -2359.8563    -2361.033 
        44.9    295.65806   -460.90052    10270.892   -2360.5026   -2361.0345 
          45    296.86104     669.1841     10257.45   -2360.9391   -2361.0357 
        45.1    284.75063   -764.35599    10271.849   -2360.4603   -2361.0392 
        45.2    289.46322     67.60127    10263.981   -2360.2888   -2361.0412 
        45.3    290.37031    275.31487    10263.117   -2359.2599   -2361.0431 
        45.4    316.07065   -440.77909     10270.95   -2360.2281   -2361.0481 
        45.5    298.89866    646.08366    10259.292   -2359.7603    -2361.052 
        45.6    293.60315   -491.59803    10270.638   -2361.0825   -2361.0598 
        45.7    279.29698    131.76909    10262.633   -2360.3814   -2361.0641 
        45.8     299.2865     396.0637    10261.991   -2360.9931   -2361.0716 
        45.9    292.03966   -926.74248    10272.246   -2359.9317   -2361.0775 
          46    304.63444    661.48438     10257.55   -2360.4042   -2361.0849 
        46.1    307.27701   -432.77113    10270.616   -2360.7021    -2361.095 
        46.2    289.71713   -146.27933    10264.606   -2360.0519   -2361.0993 
        46.3    294.91474    618.33603    10256.874   -2362.2612   -2361.1129 
        46.4    288.05832   -1750.0781    10279.821   -2361.5123   -2361.1194 
        46.5    298.85144    1551.7321    10249.657    -2360.669    -2361.127 
        46.6    307.47664   -693.27345    10271.637      -2360.4   -2361.1343 
        46.7    308.69243   -706.52655    10271.541   -2360.4766   -2361.1424 
        46.8    303.18135    1593.4335    10247.466   -2360.8428   -2361.1497 
        46.9    271.79631   -2495.4497    10286.133   -2360.5122   -2361.1562 
          47    288.30115    1715.6489     10247.49   -2361.5049   -2361.1633 
        47.1    297.51148    199.74549    10263.726   -2361.0027   -2361.1675 
        47.2    299.86809   -1915.1333    10282.801   -2360.5457   -2361.1716 
        47.3    283.82598    2599.6782    10237.373   -2359.2326   -2361.1742 
        47.4    305.53725   -1900.0347    10285.797   -2360.4118   -2361.1793 
        47.5    295.17757    636.65058    10258.132    -2359.717   -2361.1812 
        47.6    298.62076    1216.7189        10253   -2360.5293    -2361.186 
        47.7    292.28297   -2222.7211    10287.746   -2360.9885   -2361.1899 
        47.8    295.71947    2577.3524    10237.594   -2361.3526   -2361.1922 
        47.9    304.25558   -1554.8156    10280.316   -2360.5119   -2361.1944 
          48     315.1971   -373.63798    10266.826   -2360.0698   -2361.1955 
        48.1    303.44629    1854.2183    10244.606   -2359.7544   -2361.1978 
        48.2    305.87969   -3109.4178     10294.78   -2360.7047   -2361.2006 
        48.3    304.21743    2707.6816    10237.192   -2361.0617   -2361.2038 
        48.4    305.07281   -1180.0754    10276.124   -2361.0468   -2361.2056 
        48.5    301.35458   -1046.0086    10274.103   -2360.6735   -2361.2067 
        48.6    299.76961    2748.6097    10234.998   -2360.3321   -2361.2072 
        48.7    295.57813   -3588.1638    10301.025   -2359.7821   -2361.2092 
        48.8    316.44247    2519.0841    10239.427   -2360.3342   -2361.2103 
        48.9    306.92668   -276.18218    10266.186   -2359.5197   -2361.2089 
          49    299.17423   -2188.1155    10286.434   -2360.2014   -2361.2106 
        49.1    305.56535    3730.0734    10228.982   -2361.7115   -2361.2123 
        49.2    292.96296   -3054.6067    10294.469   -2360.8932   -2361.2114 
        49.3    301.50912    940.01068     10253.92   -2360.2927   -2361.2085 
        49.4    293.14463    1067.6498    10251.179   -2357.9928   -2361.2049 
        49.5    328.55203   -3059.5927    10296.962    -2360.579   -2361.2081 
        49.6    294.68216    3132.5476    10230.911    -2359.363   -2361.2028 
        49.7    307.90047   -1839.8457    10283.401   -2361.4045   -2361.2034 
        49.8     290.1273   -382.90959    10266.711   -2360.6831   -2361.2001 
        49.9    303.83593    2076.6758    10243.394   -2360.9783   -2361.1963 
          50    313.79423   -2649.0144    10292.208   -2359.5899   -2361.1894 
Loop time of 61.8666 on 1 procs for 50000 steps with 512 atoms

Performance: 69.828 ns/day, 0.344 hours/ns, 808.191 timesteps/s
99.9% CPU use with 1 MPI tasks x no OpenMP threads

MPI task timing breakdown:
Section |  min time  |  avg time  |  max time  |%varavg| %total
---------------------------------------------------------------
Pair    | 59.128     | 59.128     | 59.128     |   0.0 | 95.57
Neigh   | 0          | 0          | 0          |   0.0 |  0.00
Comm    | 0.53668    | 0.53668    | 0.53668    |   0.0 |  0.87
Output  | 0.012569   | 0.012569   | 0.012569   |   0.0 |  0.02
Modify  | 1.877      | 1.877      | 1.877      |   0.0 |  3.03
Other   |            | 0.3124     |            |       |  0.50

Nlocal:        512.000 ave         512 max         512 min
Histogram: 1 0 0 0 0 0 0 0 0 0
Nghost:        1018.00 ave        1018 max        1018 min
Histogram: 1 0 0 0 0 0 0 0 0 0
Neighs:         0.00000 ave           0 max           0 min
Histogram: 1 0 0 0 0 0 0 0 0 0
FullNghs:      14336.0 ave       14336 max       14336 min
Histogram: 1 0 0 0 0 0 0 0 0 0

Total # of neighbors = 14336
Ave neighs/atom = 28.000000
Neighbor list builds = 0
Dangerous builds = 0
unfix           1

#reset_timestep 0

#dump            2 all custom 10 md.lammpstrj id type x y z

#run 60000


#fix             1 all nvt temp 300 5000 100 tchain 5 tloop 2
#run             470000
#unfix           1

#fix             1 all nvt temp 5000 5000 100 tchain 5 tloop 2
#run             100000
#unfix           1

# cooling at 10 K/ps
#fix             1 all nvt temp 3500 300 100
#run             470000
#unfix           1

# final relaxation
#fix             1 all nvt temp 300 300 100
#run             10000
#unfix           1


write_data S300K.dat
System init for write_data ...
write_restart S300K.rest
System init for write_restart ...
Total wall time: 0:01:02
