LAMMPS (29 Sep 2021)
Reading data file ...
  triclinic box = (0.0000000 0.0000000 0.0000000) to (21.728000 21.728000 21.728000) with tilt (0.0000000 0.0000000 0.0000000)
  1 by 1 by 1 MPI processor grid
  reading atoms ...
  512 atoms
  read_data CPU = 0.007 seconds
Reading tersoff potential file Si-tersoff-1988-9902 with DATE: 2009-03-18
Neighbor list info ...
  update every 1 steps, delay 1 steps, check yes
  max neighbors/atom: 2000, page size: 100000
  master list distance cutoff = 5
  ghost atom cutoff = 5
  binsize = 2.5, bins = 9 9 9
  1 neighbor lists, perpetual/occasional/extra = 1 0 0
  (1) pair tersoff, perpetual
      attributes: full, newton on
      pair build: full/bin/atomonly
      stencil: full/bin/3d
      bin: standard
Setting up Verlet run ...
  Unit style    : metal
  Current step  : 0
  Time step     : 0.001
Per MPI rank memory allocation (min/avg/max) = 3.094 | 3.094 | 3.094 Mbytes
Time Temp Press Volume PotEng Econserve 
           0          300    2051.9579    10257.919   -2370.4195   -2350.6039 
         0.1    210.44005   -2661.1173    10314.164     -2362.47   -2350.5949 
         0.2    246.92944    76.897553    10288.171   -2361.3547   -2350.5933 
         0.3    270.70421   -150.18217    10296.685   -2358.6877   -2350.5896 
         0.4    260.37274   -3142.1632    10337.289     -2353.54   -2350.5833 
         0.5    296.71383     1883.415    10292.451   -2351.7699   -2350.5804 
         0.6     318.1453   -3113.2734     10352.02    -2349.831   -2350.5778 
         0.7    281.26504    570.09727    10314.915   -2346.3281   -2350.5742 
         0.8     316.9817   -25.891288    10324.411   -2349.8646   -2350.5762 
         0.9     279.1217   -1491.2257    10335.167   -2349.7824   -2350.5779 
           1    245.41899    2408.0214    10297.679   -2348.4687   -2350.5762 
         1.1    285.85363   -1157.9184    10337.668   -2350.4787   -2350.5786 
         1.2    290.21969    1962.3742     10307.17   -2349.1054   -2350.5782 
         1.3    300.24179     530.7972     10325.27   -2348.5421   -2350.5795 
         1.4    337.64465    762.05205    10326.406   -2351.1704   -2350.5843 
         1.5    283.06648    1864.1825    10302.193   -2349.1353   -2350.5896 
         1.6    296.61075   -2858.7854    10348.584   -2351.1386   -2350.5973 
         1.7    302.16986    2187.8027    10293.237   -2351.4995    -2350.603 
         1.8      252.885   -2106.4056    10341.877   -2347.3381   -2350.6061 
         1.9    294.59091    -388.1703    10327.149   -2348.9202   -2350.6133 
           2    289.54097    2734.2687    10297.405   -2348.3357   -2350.6205 
         2.1    257.79221   -3588.9339    10366.742   -2347.0824   -2350.6275 
         2.2    276.87689    4354.3075    10273.095   -2349.3891   -2350.6398 
         2.3    277.60694   -3344.1181    10355.142   -2349.7669    -2350.648 
         2.4    246.41392    739.97557    10315.443   -2347.1637   -2350.6515 
         2.5    321.46793    3380.2811    10292.266   -2350.8552   -2350.6597 
         2.6    304.20748   -3999.4981    10373.487    -2349.334   -2350.6623 
         2.7    323.22092    6282.0391    10262.801   -2350.9872   -2350.6654 
         2.8    303.28768   -3198.6211    10356.959   -2351.1242   -2350.6687 
         2.9    275.70117    486.66975    10314.349   -2349.6036   -2350.6676 
           3    272.61383    1741.0207    10300.403   -2348.7332   -2350.6653 
         3.1    318.33113   -4550.6736    10370.287   -2350.0653   -2350.6637 
         3.2    268.22509    4084.6262     10278.49   -2345.9551   -2350.6563 
         3.3    290.78701   -4098.5287    10363.675   -2349.3068   -2350.6538 
         3.4    297.75174    1829.0352    10298.914    -2351.295   -2350.6493 
         3.5    310.12603    536.81037    10315.194   -2351.8893   -2350.6422 
         3.6    292.40181   -1995.6489     10344.98   -2349.5791   -2350.6321 
         3.7    307.23503    3639.0975    10288.029   -2349.4553   -2350.6211 
         3.8    315.95153   -2927.8382    10354.983   -2350.2409   -2350.6142 
         3.9     317.6131    2364.4622    10297.003   -2351.7431   -2350.6066 
           4    305.55889   -267.03158      10322.4   -2351.9736   -2350.5982 
         4.1    295.22952   -933.10818    10330.975    -2350.844   -2350.5872 
         4.2    284.41166    1415.7694    10297.697   -2349.6834   -2350.5797 
         4.3    274.72881   -3141.2904    10354.025   -2348.3833     -2350.57 
         4.4    287.28088    1280.7865     10302.01   -2348.7957   -2350.5641 
         4.5    316.95095   -833.79309    10330.961   -2350.9558   -2350.5586 
         4.6    312.46198   -358.72787    10324.306   -2352.3263   -2350.5555 
         4.7    291.29889    1975.0026    10298.742   -2351.1958   -2350.5498 
         4.8    322.79411   -1442.8647     10339.68   -2352.0834   -2350.5471 
         4.9    307.30765    1886.1345    10301.833   -2350.0471   -2350.5439 
           5    309.95095   -846.41492    10331.313   -2350.1839   -2350.5415 
         5.1    326.97464   -818.46274    10325.198   -2351.8004   -2350.5423 
         5.2    283.95204     1288.263    10307.236   -2349.8082   -2350.5387 
         5.3    283.33132   -1622.0232    10331.821   -2351.7768   -2350.5405 
         5.4     280.3156    1216.2347    10306.442    -2351.135   -2350.5383 
         5.5     289.4114   -654.91564    10324.064   -2350.2643   -2350.5382 
         5.6    284.04075   -824.09728    10327.764   -2349.2005   -2350.5378 
         5.7    298.47654    727.22357    10313.432   -2349.6305   -2350.5379 
         5.8    309.70823   -1366.5759     10334.93   -2350.0831     -2350.54 
         5.9    283.80096    1755.0692    10304.361   -2349.2945   -2350.5399 
           6    314.87911   -636.93074     10328.61   -2352.6952   -2350.5454 
         6.1    295.94118    1121.6044    10307.236   -2351.4159   -2350.5467 
         6.2      327.892    518.04889     10317.92   -2352.1603   -2350.5494 
         6.3    281.98432   -910.75065    10329.719   -2348.7094   -2350.5506 
         6.4     298.1053    946.97889    10307.461    -2349.768   -2350.5538 
         6.5     302.7671   -1646.8307    10338.164   -2350.4867   -2350.5581 
         6.6    309.33232    1377.3053    10305.523   -2351.6021   -2350.5633 
         6.7    277.12264   -606.05655    10321.598    -2350.634   -2350.5673 
         6.8    287.55149   -1394.3712    10329.936   -2351.1251   -2350.5719 
         6.9    271.91436    1524.3141    10299.348   -2348.2907   -2350.5746 
           7    280.75484   -3251.4954    10352.682   -2348.3248   -2350.5782 
         7.1    307.89243    2313.8182    10296.942   -2350.2706   -2350.5844 
         7.2     317.9534   -314.05191    10324.787   -2351.6786   -2350.5899 
         7.3    315.17687     -997.894    10327.913   -2352.7601   -2350.5964 
         7.4    318.63653    3257.3114    10284.862    -2353.709   -2350.6021 
         7.5    308.36041   -2417.6044    10349.018   -2351.5548   -2350.6049 
         7.6    318.11364     2408.463    10293.038   -2350.8112   -2350.6101 
         7.7    282.26011   -1626.5388     10335.83    -2348.204   -2350.6134 
         7.8    281.20457   -1432.5105    10331.041   -2348.6906   -2350.6203 
         7.9    277.69057    1998.9148    10294.361   -2349.6334   -2350.6268 
           8    280.36548   -3443.0552    10353.894   -2350.3533   -2350.6328 
         8.1    288.48378    3074.0275    10285.175   -2349.5399   -2350.6383 
         8.2     294.7176   -2650.0512    10349.975   -2348.2697   -2350.6433 
         8.3    302.44862    848.22364    10313.239   -2349.3937   -2350.6513 
         8.4    303.09647    1778.5357    10300.917   -2350.7211   -2350.6606 
         8.5    301.44653   -3346.4209    10360.213   -2351.0637   -2350.6675 
         8.6    316.18804     6593.087    10255.226   -2351.6607   -2350.6763 
         8.7    309.72942   -4507.7305    10375.378   -2349.6377   -2350.6817 
         8.8    323.10191    3186.1247    10292.896   -2349.6842   -2350.6896 
         8.9    310.33461    1355.1557    10307.544   -2349.5511   -2350.6968 
           9     253.7627   -5916.8983    10381.121   -2346.8393   -2350.6999 
         9.1    293.24508    7402.7762    10240.025    -2349.948   -2350.7034 
         9.2    275.18543    -6920.867    10394.937   -2349.0956   -2350.7002 
         9.3    300.63442    3746.7609     10278.94   -2350.0122   -2350.6952 
         9.4     301.0133    124.94386     10321.69   -2348.2147    -2350.682 
         9.5    310.86774   -3594.1433    10359.303   -2349.1968   -2350.6683 
         9.6    304.79449    4711.2587    10269.222   -2349.9462   -2350.6517 
         9.7    297.89507   -3662.3859    10361.766     -2350.11   -2350.6332 
         9.8    304.52863    2336.8095    10293.284   -2350.7805    -2350.619 
         9.9    308.65423    -108.2881    10321.266   -2350.8454   -2350.6047 
          10    325.60267   -375.08658    10328.395   -2350.7238   -2350.5934 
        10.1    332.33941    2332.2852    10299.819   -2350.1351   -2350.5843 
        10.2    304.37723   -2027.2038    10343.019   -2349.3978   -2350.5775 
        10.3    289.70853    1531.6431    10301.177   -2349.7653   -2350.5728 
        10.4    260.32223   -1736.1833     10330.12   -2348.1236   -2350.5677 
        10.5    288.16593   -405.82421    10320.947   -2349.6205    -2350.564 
        10.6    308.28029    996.58843    10308.826   -2350.1479   -2350.5606 
        10.7    325.32984   -1625.0226    10337.055   -2349.7069   -2350.5574 
        10.8    312.90978    1432.3826    10306.462   -2348.9294   -2350.5533 
        10.9     306.8784   -1068.0159    10328.234   -2350.5946   -2350.5537 
          11    299.74938    566.90352    10313.092   -2350.5526   -2350.5513 
        11.1    318.67088    443.39499     10311.64   -2351.6709   -2350.5509 
        11.2    326.96702   -1352.1475    10334.256   -2351.6027   -2350.5494 
        11.3    334.39317    2273.5644    10296.467   -2351.1499    -2350.548 
        11.4     329.2305   -1892.3037    10341.452    -2350.404   -2350.5467 
        11.5    309.32508    408.01355    10311.825   -2350.6081   -2350.5476 
        11.6    268.27275    151.19053    10310.953    -2349.164   -2350.5449 
        11.7    275.24629     -2597.63    10341.487   -2349.4508   -2350.5457 
        11.8     298.6769    1998.1904    10294.587   -2349.8821   -2350.5447 
        11.9    301.33039   -1829.5173    10341.304   -2349.0681    -2350.543 
          12    317.28523    1426.7233    10309.249   -2350.0776   -2350.5433 
        12.1    295.53503    1210.4533    10309.381   -2350.7516   -2350.5445 
        12.2    296.00751   -1112.8004    10331.896      -2351.4    -2350.545 
        12.3    301.98941    2719.9037    10292.706   -2350.9101   -2350.5456 
        12.4    302.13761   -1978.0752    10340.091   -2349.7057   -2350.5457 
        12.5     276.8237    703.87445    10311.529   -2347.8503   -2350.5448 
        12.6    316.64506    283.48425    10316.706   -2350.9036   -2350.5491 
        12.7     280.1736   -1098.7366    10330.239   -2350.0146   -2350.5504 
        12.8    272.79527    1687.5226     10295.21   -2351.2522   -2350.5542 
        12.9    278.94213   -2323.3165    10337.598    -2351.242   -2350.5569 
          13    279.38137      874.504    10303.063   -2350.1589   -2350.5589 
        13.1    297.32224   -719.94747     10324.06   -2349.9913   -2350.5622 
        13.2    334.53588   -525.35769    10329.359   -2351.5383   -2350.5658 
        13.3    311.15268    2351.0412    10296.144   -2350.1253   -2350.5694 
        13.4    320.83029   -2290.6627     10345.96   -2351.9608   -2350.5756 
        13.5    290.37621    2637.9102    10288.606   -2351.2263   -2350.5806 
        13.6    278.36582   -1448.7802    10332.056   -2350.0343   -2350.5855 
        13.7    296.95979   -381.61297    10323.992   -2350.4498   -2350.5907 
        13.8     288.6646    2290.8799    10294.262   -2349.4149   -2350.5951 
        13.9    291.07305    -3860.938    10361.398   -2349.3452   -2350.6013 
          14    317.57939    3722.1145    10279.121   -2350.8445   -2350.6078 
        14.1    294.33717   -2740.7053    10346.266   -2349.4807   -2350.6109 
        14.2    279.44918   -488.75052    10322.919   -2349.0661   -2350.6145 
        14.3     283.2988    2781.3383    10288.539   -2349.9545   -2350.6191 
        14.4     265.7648   -4605.7986    10368.554   -2348.7788   -2350.6204 
        14.5    287.87075    4878.2192    10269.667   -2348.9526   -2350.6218 
        14.6    338.46179   -2384.5544    10354.018    -2351.062   -2350.6233 
        14.7    304.64926    1119.6775    10313.464   -2349.2976   -2350.6223 
        14.8    325.73111    2820.3538    10294.799   -2351.3533   -2350.6232 
        14.9    310.52611   -3968.4172    10362.892   -2350.7769   -2350.6216 
          15    278.11104    4066.4879    10273.817   -2348.8274   -2350.6166 
        15.1    301.61515   -2943.8272    10352.184   -2350.5437   -2350.6131 
        15.2    281.08438    511.60548    10310.944   -2349.2377   -2350.6061 
        15.3    290.63422     957.3892     10308.48   -2349.5028   -2350.5983 
        15.4    295.99701     -2259.02    10346.676   -2349.2578   -2350.5892 
        15.5     292.9322    2166.6966    10293.814   -2348.7835   -2350.5804 
        15.6    279.61742   -2496.1465    10347.668   -2348.7119   -2350.5693 
        15.7    296.20601    1611.1372    10301.206   -2351.2198   -2350.5612 
        15.8    288.52751   -74.139525    10319.507   -2350.8154   -2350.5503 
        15.9    311.95175   -381.52597    10329.186   -2351.1652    -2350.539 
          16    319.04698    2539.8713    10297.825   -2351.0429   -2350.5296 
        16.1    319.09938   -1737.1474    10339.145   -2351.1872    -2350.522 
        16.2    305.19792    1388.6391    10306.286   -2350.6219   -2350.5143 
        16.3    300.74652   -366.07004    10322.553   -2350.7356   -2350.5089 
        16.4    283.55246   -1214.9882    10327.323   -2350.1435   -2350.5039 
        16.5    288.78604    900.60384    10306.968   -2350.3604   -2350.4991 
        16.6    290.65804   -1887.8827    10336.614   -2349.2675   -2350.4945 
        16.7    315.02586     798.1084    10314.137   -2349.8036   -2350.4911 
        16.8    305.26561    248.43462    10320.184    -2349.688   -2350.4886 
        16.9    297.49943   -1128.3487    10330.677   -2350.5131   -2350.4887 
          17     275.3675     1138.544    10303.355   -2349.8197   -2350.4875 
        17.1    290.96892   -1050.4167    10332.669     -2350.41   -2350.4869 
        17.2    296.30269    1041.3206    10310.087   -2349.9935   -2350.4857 
        17.3    315.16687    413.68357    10322.179   -2350.1885   -2350.4846 
        17.4    292.07891    406.72327    10321.138   -2348.6761   -2350.4849 
        17.5    292.48861    566.36766    10315.136   -2350.2548   -2350.4884 
        17.6     275.0899   -967.07419    10325.243   -2350.3403   -2350.4914 
        17.7    289.04529    300.74122    10313.539   -2350.4939   -2350.4932 
        17.8    302.37919   -1086.8931    10327.283    -2350.299   -2350.4957 
        17.9    302.35995   -604.66214    10323.145   -2349.7533   -2350.4974 
          18    312.01762    483.77647    10315.016   -2350.5877   -2350.5009 
        18.1    294.19492    -1008.632    10330.505   -2350.1381   -2350.5035 
        18.2    269.50724    1381.6704    10301.873   -2350.6541   -2350.5085 
        18.3    282.15024   -1032.9986    10329.235   -2351.0333   -2350.5127 
        18.4    290.91758    890.97094    10312.143    -2350.202   -2350.5158 
        18.5    305.56642    509.42522    10316.824   -2350.2874    -2350.521 
        18.6    316.92851   -731.11657    10330.712    -2350.697    -2350.526 
        18.7    308.28377    1689.2185    10303.923   -2350.4319   -2350.5319 
        18.8    291.14443   -1812.4265    10334.939   -2350.7244    -2350.539 
        18.9    290.56454    767.76221    10306.688   -2351.4425   -2350.5459 
          19    283.32442   -423.21639    10320.364   -2349.9541    -2350.551 
        19.1    285.58111   -1906.3176    10337.129   -2348.8812   -2350.5563 
        19.2    314.42779    2121.3744    10296.833   -2350.6303   -2350.5625 
        19.3    290.97494   -2309.2787     10345.15   -2349.5609   -2350.5683 
        19.4    324.61376    2292.3523    10299.962   -2352.3369   -2350.5747 
        19.5     292.1455    141.10738    10315.813    -2351.437   -2350.5805 
        19.6    279.56316    -1623.151    10335.169   -2350.7209   -2350.5844 
        19.7    296.45135    2876.5646    10289.415   -2349.8321    -2350.587 
        19.8    307.90179   -2940.0508    10353.432   -2349.8142   -2350.5903 
        19.9    310.04942    2155.0617    10295.975   -2350.3977   -2350.5946 
          20    301.83676    -871.0022    10328.626   -2350.7752   -2350.5969 
        20.1    281.23883   -1112.3898    10324.674    -2350.672   -2350.5999 
        20.2    292.26676    1592.8368    10297.448   -2351.0813    -2350.601 
        20.3    310.11785   -3291.5424    10351.552   -2349.9881   -2350.6016 
        20.4    319.56638    2099.1917    10294.806   -2350.2787   -2350.6026 
        20.5    309.41272    -1816.431    10335.624   -2350.6574   -2350.6039 
        20.6    326.54033   -88.013733    10319.389   -2352.5892    -2350.605 
        20.7    307.79613    2198.0456    10294.754   -2351.6261   -2350.6043 
        20.8    322.67125   -2644.6309    10351.116   -2351.0273   -2350.6028 
        20.9    297.40175    3498.7313    10286.455   -2348.2332   -2350.5992 
          21    298.61371   -2511.6884    10346.359   -2349.0511    -2350.601 
        21.1    293.86238    807.24884    10311.231    -2350.104   -2350.6014 
        21.2    284.78764    1445.7789    10303.398   -2349.7479   -2350.6002 
        21.3    289.88258   -2591.2849    10347.212   -2349.8828   -2350.5998 
        21.4    305.14672    3384.0849    10284.205   -2350.1753   -2350.5991 
        21.5    316.35794   -2777.3092    10349.201    -2349.366   -2350.5976 
        21.6    308.81589     367.6356     10317.36      -2347.6   -2350.5941 
        21.7    306.90154     386.0016      10314.5   -2348.8924   -2350.5937 
        21.8    301.71855   -2170.4683    10342.762   -2349.4978   -2350.5926 
        21.9    315.25251    3110.6201    10287.058   -2351.3276   -2350.5915 
          22    311.72294    -2038.332    10342.021   -2351.7672   -2350.5902 
        22.1    320.26353    1634.0917    10302.051   -2352.0992   -2350.5882 
        22.2    316.53762    198.79727    10316.917    -2350.372   -2350.5857 
        22.3     319.4517    -1709.866    10341.081   -2349.7293   -2350.5817 
        22.4    305.77277    2138.4937    10294.642   -2349.6791    -2350.581 
        22.5    296.83126   -2494.2183    10345.348   -2349.9701   -2350.5783 
        22.6    289.17994    1278.3407    10303.246   -2349.8148   -2350.5771 
        22.7    293.75774   -649.30755    10323.079   -2349.9627   -2350.5744 
        22.8    290.67632   -1049.9288     10326.78   -2349.6275   -2350.5726 
        22.9      305.523    1458.9291    10304.901   -2349.4886   -2350.5697 
          23    304.07553   -2253.0393     10346.14   -2347.9598   -2350.5659 
        23.1    317.08049     1887.879    10301.575   -2349.6852   -2350.5647 
        23.2     303.6663   -417.41187    10326.676   -2350.2863   -2350.5628 
        23.3    321.00308    120.27418     10321.15   -2351.7122   -2350.5611 
        23.4    303.03586    2181.4522    10299.206   -2350.8179   -2350.5576 
        23.5    314.20589   -1603.0744    10340.318    -2351.124    -2350.554 
        23.6    294.61924    1908.3346    10299.151   -2348.5305   -2350.5494 
        23.7    316.38682   -1844.5215    10338.481   -2349.3054   -2350.5467 
        23.8    301.70762   -430.14443    10321.091   -2349.8578   -2350.5432 
        23.9    286.53116    800.25103    10308.574   -2349.7517   -2350.5383 
          24    298.36313   -1698.2616    10334.965   -2350.5986   -2350.5341 
        24.1    296.46641     1313.321     10304.42   -2349.8639    -2350.528 
        24.2    303.10539   -643.26553    10327.859   -2349.2051   -2350.5217 
        24.3    310.79526   -354.92108     10325.83   -2348.5708   -2350.5145 
        24.4    309.60087    746.13796    10313.152   -2349.1869   -2350.5095 
        24.5    296.55194   -448.91629    10326.392   -2350.1351   -2350.5043 
        24.6    306.05131    1139.1194    10307.949   -2351.3378   -2350.4997 
        24.7    300.31611   -126.82443    10321.662   -2350.7913   -2350.4931 
        24.8    307.77396    566.92782    10314.985   -2350.0917   -2350.4878 
        24.9    311.73684   -204.91825    10321.863   -2349.2362   -2350.4814 
          25    307.90914   -1123.8552    10328.466   -2349.5922   -2350.4776 
        25.1    284.72149    778.17283    10307.111   -2350.2163   -2350.4731 
        25.2    305.08439   -1255.3521    10330.557   -2351.4345   -2350.4696 
        25.3    294.97317    633.46684    10307.778   -2349.9239   -2350.4647 
        25.4    317.90776   -552.13729     10327.09   -2350.3937   -2350.4593 
        25.5    304.81323   -151.24775    10320.626   -2349.5203   -2350.4554 
        25.6    293.36465    273.45713    10313.641   -2350.2982    -2350.453 
        25.7    283.93019   -779.22808    10323.885   -2350.7709   -2350.4506 
        25.8    300.71169    814.94844     10308.29   -2351.1801   -2350.4474 
        25.9    295.58299   -116.48183    10322.311   -2349.9212   -2350.4427 
          26    318.63835    390.81398    10317.691     -2350.89     -2350.44 
        26.1    294.74692     748.9174    10312.521   -2349.4827   -2350.4373 
        26.2    291.58276   -802.04548    10327.899   -2349.5123   -2350.4352 
        26.3    280.86941    597.88417    10310.212   -2349.0937   -2350.4343 
        26.4    292.24313   -874.09313    10325.483   -2349.8358   -2350.4335 
        26.5    286.28236    -38.74742    10319.726   -2349.0958   -2350.4314 
        26.6    326.67178    681.77011     10312.93   -2350.5748    -2350.431 
        26.7     301.0757   -1147.9493    10331.792    -2349.042     -2350.43 
        26.8    298.14891    1164.2046    10305.992    -2350.072   -2350.4302 
        26.9      295.268   -453.43809    10321.847   -2350.8608   -2350.4311 
          27    287.29757   -485.98463     10319.93   -2350.2181    -2350.432 
        27.1     313.7809    577.87464    10311.874   -2350.3684    -2350.433 
        27.2    324.08269   -1039.1045    10331.488   -2349.8972   -2350.4344 
        27.3    306.92544    889.26367    10310.389   -2349.4295   -2350.4363 
        27.4    307.28852    -399.7388    10324.628   -2350.3296    -2350.441 
        27.5    288.20916    142.34969    10314.584   -2349.9317    -2350.446 
        27.6    273.63359    23.669846    10316.207   -2349.2333    -2350.452 
        27.7    293.90749   -514.56977    10324.962    -2349.371   -2350.4587 
        27.8    301.72701    1097.1635    10311.098   -2348.2184   -2350.4654 
        27.9    305.94793   -532.05194    10329.717   -2349.2016   -2350.4755 
          28    315.05778    1343.3095    10306.694   -2351.0496   -2350.4877 
        28.1    302.45162    148.97732    10318.356   -2350.7495   -2350.4977 
        28.2    294.38414   -555.49734    10323.811   -2350.2124   -2350.5079 
        28.3    323.21387     1670.675    10300.625   -2351.1528   -2350.5186 
        28.4    291.10284   -2622.5584    10346.816   -2347.3785   -2350.5247 
        28.5     322.3719    2163.5691    10298.494   -2349.7712   -2350.5356 
        28.6    307.00565    -652.0597     10326.04    -2350.099   -2350.5444 
        28.7    302.67347      -1173.9    10329.629   -2350.3505   -2350.5515 
        28.8    297.93052    2510.4662    10288.825    -2350.435   -2350.5582 
        28.9      292.823   -3728.4859     10355.13   -2350.2382   -2350.5631 
          29    289.75611    2938.5783    10284.348   -2349.6255   -2350.5672 
        29.1    320.08977   -1490.3959    10335.988   -2350.3925   -2350.5705 
        29.2    310.02333   -455.15597    10324.844   -2349.4259   -2350.5732 
        29.3    310.43831     2794.927    10289.632   -2350.6862   -2350.5771 
        29.4    299.99783   -3368.7558    10351.703   -2351.3084   -2350.5805 
        29.5     303.3525    3430.1825    10281.271   -2351.2181   -2350.5816 
        29.6    297.41201   -1766.4804    10336.534   -2349.9416   -2350.5825 
        29.7    306.07681   -97.747605     10319.62   -2349.7006   -2350.5826 
        29.8    289.80094    1497.3624    10300.089   -2348.7866   -2350.5838 
        29.9     291.9848   -3377.0693    10348.182   -2351.2195    -2350.587 
          30    288.80409    3432.4208    10278.578   -2351.2021   -2350.5867 
        30.1     290.9801   -2897.0679    10346.053   -2350.0112   -2350.5857 
        30.2    301.13254    694.30534    10308.324   -2349.7143   -2350.5855 
        30.3    292.76243    614.48366    10307.904   -2349.0147   -2350.5837 
        30.4    292.62751   -3266.3136    10351.066   -2349.7654   -2350.5834 
        30.5    298.70171    4144.0119    10272.132   -2351.8022   -2350.5831 
        30.6    294.40519   -2975.3569    10348.627   -2351.5052   -2350.5807 
        30.7    306.16231    1954.6496    10297.527   -2351.4535   -2350.5771 
        30.8    310.75441    767.14788    10309.986   -2351.1462   -2350.5743 
        30.9    291.82615   -2237.5416    10343.275   -2349.2727   -2350.5672 
          31    307.43206    3056.9861     10285.61   -2349.8783   -2350.5631 
        31.1    283.15013   -3270.5141    10350.986   -2348.4828   -2350.5557 
        31.2    291.79805    1462.7854    10301.731   -2350.2805   -2350.5502 
        31.3    286.47033    208.39128    10313.756     -2350.63   -2350.5425 
        31.4     282.5824   -1532.0261    10333.702   -2349.7706   -2350.5318 
        31.5    298.75723    1586.1929     10299.64   -2349.1702   -2350.5227 
        31.6    301.26569   -1724.2703    10337.254   -2349.1778   -2350.5125 
        31.7    301.26582    852.04504    10309.411   -2349.8313   -2350.5034 
        31.8    309.02766    122.53246    10317.803   -2350.9813   -2350.4946 
        31.9    309.19708   -294.12413    10320.638   -2351.2389   -2350.4864 
          32    301.19194    1215.2231    10307.703   -2350.5549   -2350.4768 
        32.1    305.73055   -717.90471    10327.441   -2350.6657   -2350.4699 
        32.2    308.79613    797.09557    10309.201   -2350.7045   -2350.4638 
        32.3    282.02905   -885.64897    10326.676   -2348.7717   -2350.4565 
        32.4    307.17095   -479.26439    10320.473    -2350.084   -2350.4538 
        32.5    282.97912    226.73398    10315.202   -2348.4317   -2350.4485 
        32.6    309.28388   -1005.2078    10329.294   -2350.7658    -2350.447 
        32.7    295.88918     1189.709    10304.538   -2350.9637   -2350.4454 
        32.8    287.15064   -974.08022    10325.079   -2350.6645    -2350.444 
        32.9    300.04104    111.19371    10317.217   -2349.9156   -2350.4418 
          33    318.99679    564.23803    10312.436   -2350.0619   -2350.4422 
        33.1    307.20839   -1181.2665    10332.703    -2349.833   -2350.4409 
        33.2    330.10972    1286.6748     10303.87   -2352.3675   -2350.4445 
        33.3    313.48355   -579.00579    10321.967   -2351.8864   -2350.4448 
        33.4    309.51162   -366.85546    10319.676   -2351.4034   -2350.4449 
        33.5    322.10529    593.17768    10309.658   -2351.9345   -2350.4469 
        33.6    300.94958   -1640.9236    10332.024   -2350.2233   -2350.4471 
        33.7     302.7632    780.01298    10309.263   -2349.9581   -2350.4482 
        33.8    319.46754   -857.69848    10326.408    -2350.447   -2350.4505 
        33.9    307.43474   -374.49619    10322.776   -2349.2741   -2350.4514 
          34    311.45406     977.4392    10311.174   -2350.4458    -2350.454 
        34.1    298.16425   -1003.8358    10329.017   -2350.9426   -2350.4577 
        34.2    278.50941    818.21424    10307.093   -2349.7319   -2350.4589 
        34.3    304.99109   -476.39468    10324.939   -2350.5017   -2350.4621 
        34.4    313.58841   -93.117765    10321.635   -2349.3963   -2350.4647 
        34.5      314.307    446.95696    10315.065   -2349.4934   -2350.4677 
        34.6    312.81119   -506.73749    10328.046   -2350.1022   -2350.4707 
        34.7    310.06568     919.9989    10306.349   -2351.0222    -2350.476 
        34.8    290.34547   -1238.1011     10330.07   -2350.2694   -2350.4783 
        34.9    291.00726    771.42836    10309.668   -2350.2569   -2350.4822 
          35    294.60905   -392.44736    10321.742   -2348.8424   -2350.4846 
        35.1    298.00456   -945.18423    10331.047   -2348.3158   -2350.4871 
        35.2    311.44325    1774.2962    10303.055   -2350.1221   -2350.4921 
        35.3    296.19935   -1194.7736    10332.942   -2350.3639   -2350.4957 
        35.4    305.97343    1002.3634    10307.289   -2351.0573   -2350.5004 
        35.5    299.30265    377.26126    10315.709    -2350.364   -2350.5026 
        35.6    291.45736    -1281.961    10334.281   -2349.1817    -2350.505 
        35.7     307.1947    2218.8554    10299.706   -2348.5979   -2350.5061 
        35.8     307.2049   -1889.8249    10344.272   -2347.9058   -2350.5082 
        35.9    298.72082    857.01897    10308.896   -2349.4194   -2350.5143 
          36    301.65367    346.26458    10317.136   -2350.3714    -2350.518 
        36.1    301.42293   -1501.0947    10331.967   -2350.6402   -2350.5218 
        36.2    293.93153    1619.7532    10299.872   -2350.1593   -2350.5233 
        36.3    296.73471   -1694.0173    10338.967   -2349.7764   -2350.5253 
        36.4    302.06271    1059.7694    10308.478   -2349.0967   -2350.5277 
        36.5    311.16628   -211.08765     10324.23   -2349.1214   -2350.5294 
        36.6    302.78583   -489.10527    10325.733   -2350.1761   -2350.5339 
        36.7    301.63729    2025.1517    10298.949   -2351.1918   -2350.5378 
        36.8     290.6887   -1653.6568     10337.15     -2350.32   -2350.5403 
        36.9    294.79319    1684.9631    10304.283   -2349.5853   -2350.5421 
          37    313.68824   -609.45598    10325.965   -2349.9067   -2350.5467 
        37.1    305.33502   -977.21023    10330.754   -2348.6393   -2350.5474 
        37.2    310.15984     1568.634    10304.999   -2349.1449   -2350.5509 
        37.3    297.88079    -2082.529    10340.674   -2349.9899   -2350.5545 
        37.4    276.21958    1985.9959    10297.164   -2349.5546   -2350.5572 
        37.5    300.78782   -1290.5564    10331.081   -2350.9732   -2350.5622 
        37.6    293.44039   -86.107086    10319.523   -2349.3034   -2350.5639 
        37.7     315.6164    1250.5943    10307.877    -2349.517   -2350.5672 
        37.8     309.9236   -2175.3478    10344.711   -2349.5917   -2350.5699 
        37.9    305.89292    2661.7069    10292.845   -2349.8948   -2350.5727 
          38    305.14608   -1464.7031    10337.448   -2350.4534   -2350.5762 
        38.1    307.64359    579.58249    10314.123    -2351.079   -2350.5804 
        38.2    288.97155    1264.3719    10303.453   -2350.2923   -2350.5825 
        38.3    296.80022   -2787.5479    10347.957   -2350.6852   -2350.5855 
        38.4     307.9858     3328.102    10284.393   -2350.2017   -2350.5865 
        38.5    297.88474   -2846.9079     10350.06   -2348.6546   -2350.5872 
        38.6    313.05643    919.90165    10310.278   -2350.0621   -2350.5892 
        38.7    300.95978    987.04198    10305.847   -2351.0054   -2350.5918 
        38.8    293.20005   -2966.8453    10347.739   -2350.7768   -2350.5923 
        38.9    308.81965    3395.2791    10281.999   -2351.1721   -2350.5926 
          39    303.17906    -2798.557    10348.998   -2350.0371   -2350.5912 
        39.1    310.48703    1346.6178    10305.164   -2350.0795   -2350.5912 
        39.2    335.55208    524.26205    10315.175    -2351.425    -2350.592 
        39.3    319.07173   -1597.9512    10337.834   -2350.9787   -2350.5918 
        39.4    313.44076    2851.2279    10288.408   -2351.7224   -2350.5919 
        39.5    290.49208   -2668.6955    10343.845   -2350.7829   -2350.5917 
        39.6    293.58364    1024.7232    10303.459   -2350.1518   -2350.5913 
        39.7    310.54081    -603.2434    10322.487   -2349.7164   -2350.5911 
        39.8    323.74322   -1937.9411    10336.787   -2350.4946   -2350.5911 
        39.9    294.04249    2240.6645    10293.263   -2349.2496   -2350.5902 
          40    311.02022   -2825.3422    10350.181   -2350.8286   -2350.5909 
        40.1    297.02045    2419.5201    10291.391   -2350.3586   -2350.5907 
        40.2    295.84656    -970.8376    10330.747   -2350.1779   -2350.5892 
        40.3    320.98704   -296.02894    10326.214   -2350.5429    -2350.589 
        40.4    302.02469    2527.5444    10294.272   -2348.3157    -2350.587 
        40.5    295.05968   -3101.4637    10354.612   -2348.9191   -2350.5872 
        40.6    303.39842    3352.6288    10285.559   -2350.6389    -2350.588 
        40.7    290.39078   -1286.3352    10330.391   -2350.2188   -2350.5878 
        40.8    299.59067   -767.13993    10325.796   -2350.4177   -2350.5871 
        40.9    303.77002    2120.8548    10294.441   -2349.7745   -2350.5861 
          41     304.5491   -3465.7083    10358.509   -2347.7194   -2350.5821 
        41.1     301.2174    3265.1709    10287.884   -2348.0467     -2350.58 
        41.2    293.64031   -1986.8342    10341.016   -2348.7946   -2350.5808 
        41.3     292.6897    279.39925    10313.951   -2349.7415   -2350.5803 
        41.4    295.69927    1651.2634    10302.024   -2350.3797   -2350.5791 
        41.5    296.62252   -2324.4372    10342.224   -2350.5503   -2350.5786 
        41.6    290.24726    2714.0395    10291.257   -2349.2072   -2350.5766 
        41.7    308.99135   -1564.2652    10338.094   -2349.1408   -2350.5754 
        41.8    308.32732     386.8408    10315.145   -2349.4994    -2350.575 
        41.9    309.79288    688.73125    10307.518   -2351.2793   -2350.5764 
          42    293.39669   -1529.5229    10336.453   -2350.5393   -2350.5749 
        42.1    295.54349    2198.7619    10292.148   -2350.2954   -2350.5748 
        42.2      285.211     -2511.57    10343.131   -2348.8854   -2350.5731 
        42.3    313.48265     975.9991    10309.101   -2349.5287   -2350.5726 
        42.4    310.65003    44.726227    10317.994   -2348.4587   -2350.5716 
        42.5    320.16664   -2066.6503    10341.704   -2349.5439   -2350.5722 
        42.6    298.91774     2786.482     10285.84   -2349.9916    -2350.573 
        42.7      309.052   -2847.6657    10348.353   -2351.3625   -2350.5731 
        42.8    307.50891    2225.2159    10292.928   -2351.4594    -2350.573 
        42.9     310.3961   -268.26517    10321.286   -2350.6784   -2350.5712 
          43    308.40322   -1455.8838    10334.902   -2349.1601   -2350.5693 
        43.1    314.64265    2639.4576    10291.281   -2349.6227   -2350.5683 
        43.2    298.63253   -2627.0412    10346.628    -2350.056   -2350.5679 
        43.3    294.58539    1597.7638    10299.317   -2350.1009   -2350.5662 
        43.4    284.29161    46.985809    10318.031   -2349.4357   -2350.5634 
        43.5    293.93758   -1654.6879    10334.757   -2349.6386    -2350.562 
        43.6    293.70694    2277.4481    10294.446   -2348.9746   -2350.5586 
        43.7    306.77247   -2257.2067    10345.357   -2349.2025   -2350.5549 
        43.8    310.09044    1772.5473    10299.253   -2350.0495   -2350.5532 
        43.9    292.02126    -330.1789    10323.376   -2350.3609   -2350.5488 
          44    308.41459   -205.50311    10320.004   -2351.8782   -2350.5461 
        44.1    323.56313    1813.7803    10299.038   -2352.0789   -2350.5418 
        44.2    315.14424   -2046.3251    10341.309   -2350.2412   -2350.5353 
        44.3    304.73338    1606.9594    10301.448   -2349.2857   -2350.5289 
        44.4     308.4974   -1181.7572    10330.303   -2350.0521   -2350.5238 
        44.5    300.64199   -337.25217    10319.324   -2350.3188    -2350.519 
        44.6    296.69293    698.85572    10307.879   -2350.8513   -2350.5132 
        44.7    283.37913   -1473.6641    10332.275   -2350.2173    -2350.507 
        44.8    303.96227    1651.6118    10302.057   -2350.1849   -2350.4998 
        44.9    306.72065   -1083.4999    10333.156   -2349.1447   -2350.4936 
          45    306.01648    164.40356    10319.457   -2349.5672   -2350.4878 
        45.1     293.4112    1221.3388    10306.236   -2349.9148   -2350.4831 
        45.2    303.64737   -1483.2507    10332.415   -2350.9321   -2350.4789 
        45.3    305.52312    1463.0992    10301.488   -2350.8735   -2350.4742 
        45.4    324.29989   -641.06847    10325.156   -2351.7217     -2350.47 
        45.5    308.80998   -56.137079    10318.012    -2350.439   -2350.4644 
        45.6    318.75113    324.48656    10315.105   -2349.8148   -2350.4603 
        45.7    317.24893   -1471.5695    10333.769   -2348.9131   -2350.4554 
        45.8    315.96456    455.92958    10311.002   -2350.2756   -2350.4528 
        45.9    293.26775   -901.27085     10324.53   -2350.0009   -2350.4501 
          46     300.2253   -380.72927    10319.451   -2350.6592   -2350.4473 
        46.1    302.82154    532.53807    10311.033   -2350.6769   -2350.4448 
        46.2    303.65018   -792.83822    10328.969   -2349.5483   -2350.4408 
        46.3    314.03217    779.08867    10311.267      -2349.2   -2350.4392 
        46.4      316.062   -654.25523    10327.954   -2350.1407    -2350.438 
        46.5    298.72861    812.36358    10309.509   -2350.7829    -2350.438 
        46.6    312.67854    35.846644    10317.405   -2351.6453    -2350.438 
        46.7    304.76715   -163.17241    10320.539   -2350.5054   -2350.4366 
        46.8    317.64909    514.93953    10312.573   -2350.2884   -2350.4361 
        46.9    307.90605   -1045.7965     10328.29   -2349.1587   -2350.4353 
          47     295.2881   -156.97341    10317.323   -2349.6954   -2350.4377 
        47.1    287.63168   -23.664697    10313.397   -2350.6214   -2350.4413 
        47.2    292.27728   -788.34309    10322.152   -2350.7118   -2350.4437 
        47.3    294.90833    536.98278    10311.465   -2349.6908   -2350.4463 
        47.4    315.97674   -630.42336    10324.902   -2350.1517   -2350.4515 
        47.5    323.11057    229.32655    10317.165    -2350.839   -2350.4579 
        47.6    311.71171    116.26166    10315.106   -2350.5481   -2350.4661 
        47.7    307.81046   -750.71395    10326.818   -2350.6537    -2350.475 
        47.8    299.98388    1679.6049    10302.739   -2350.5094   -2350.4847 
        47.9    294.42629   -1082.0671    10329.837    -2350.535   -2350.4962 
          48    286.95958    992.33852    10306.817   -2350.4247   -2350.5074 
        48.1    292.89308    89.512135    10318.162    -2350.237    -2350.519 
        48.2    291.09628   -934.41708    10327.755   -2348.8679   -2350.5291 
        48.3    302.81452    1061.5345    10305.959   -2349.0984   -2350.5398 
        48.4    285.30311   -1937.9521    10339.094   -2348.9925   -2350.5496 
        48.5    290.99955    1945.9842    10294.859   -2350.9487     -2350.56 
        48.6    295.07283   -698.09653    10325.541   -2351.0105   -2350.5674 
        48.7    308.80866   -455.35725    10322.017   -2351.0289   -2350.5744 
        48.8    304.35899    1987.5921    10297.459   -2349.9283   -2350.5784 
        48.9    311.52446   -2774.2799    10348.471   -2350.1422   -2350.5841 
          49    292.57852     2396.213     10292.21   -2350.0057   -2350.5891 
        49.1    293.64039   -1389.5176    10329.003   -2351.5229   -2350.5948 
        49.2    285.52278   -248.69623    10318.831    -2350.602   -2350.5971 
        49.3    295.97944    1563.6531    10300.414   -2349.8063      -2350.6 
        49.4    299.75858   -2751.6338    10349.448   -2349.5796   -2350.6025 
        49.5    299.27722    3307.9827    10287.965   -2349.6927   -2350.6048 
        49.6    291.18349   -1872.3288    10338.525   -2349.9437   -2350.6092 
        49.7    278.62308    70.648002    10315.426   -2350.9439   -2350.6128 
        49.8    283.15983    1914.1107    10295.772   -2351.5212   -2350.6162 
        49.9    291.98664   -2798.6797    10347.586   -2350.9605   -2350.6174 
          50    297.12242    3476.3757      10282.6   -2350.4786    -2350.619 
Loop time of 183.813 on 1 procs for 50000 steps with 512 atoms

Performance: 23.502 ns/day, 1.021 hours/ns, 272.015 timesteps/s
100.0% CPU use with 1 MPI tasks x no OpenMP threads

MPI task timing breakdown:
Section |  min time  |  avg time  |  max time  |%varavg| %total
---------------------------------------------------------------
Pair    | 181.04     | 181.04     | 181.04     |   0.0 | 98.49
Neigh   | 0          | 0          | 0          |   0.0 |  0.00
Comm    | 0.53716    | 0.53716    | 0.53716    |   0.0 |  0.29
Output  | 0.016205   | 0.016205   | 0.016205   |   0.0 |  0.01
Modify  | 1.9027     | 1.9027     | 1.9027     |   0.0 |  1.04
Other   |            | 0.3158     |            |       |  0.17

Nlocal:        512.000 ave         512 max         512 min
Histogram: 1 0 0 0 0 0 0 0 0 0
Nghost:        1018.00 ave        1018 max        1018 min
Histogram: 1 0 0 0 0 0 0 0 0 0
Neighs:         0.00000 ave           0 max           0 min
Histogram: 1 0 0 0 0 0 0 0 0 0
FullNghs:      14336.0 ave       14336 max       14336 min
Histogram: 1 0 0 0 0 0 0 0 0 0

Total # of neighbors = 14336
Ave neighs/atom = 28.000000
Neighbor list builds = 0
Dangerous builds = 0
System init for write_data ...
System init for write_restart ...
Total wall time: 0:03:03
