LAMMPS (23 Jun 2022 - Update 2)
# SW potential for Silicon

units		metal
dimension       3
processors      * * *
boundary	p p p

#read data
atom_style      atomic

# read restart
#read_restart    S300K.rest

#read data
read_data       Si_512.dat
Reading data file ...
  triclinic box = (0 0 0) to (21.724 21.724 21.724) with tilt (0 0 0)
  1 by 1 by 1 MPI processor grid
  reading atoms ...
  512 atoms
  read_data CPU = 0.009 seconds

#potential
pair_style      sw
pair_coeff      * * Si.sw Si
Reading sw potential file Si.sw with DATE: 2007-06-11

neighbor        2.0 bin
neigh_modify    every 1 delay 0 check yes

#outputs
velocity all create 300.0 121 mom yes dist gaussian
thermo		100
thermo_style	custom time temp press vol pe econserve
dump            1 all custom 100 md.lammpstrj id type xs ys zs vx vy vz fx fy fz
dump_modify     1 format line "%d %d %5.10f %5.10f %5.10f %5.10f %5.10f %5.10f %5.10f %5.10f %5.10f" pbc yes sort id

timestep        1e-3

#initial mixing
fix             4 all temp/rescale 1 300 300 15 0.5
fix		5 all nve
run             50000
Neighbor list info ...
  update every 1 steps, delay 0 steps, check yes
  max neighbors/atom: 2000, page size: 100000
  master list distance cutoff = 5.77118
  ghost atom cutoff = 5.77118
  binsize = 2.88559, bins = 8 8 8
  1 neighbor lists, perpetual/occasional/extra = 1 0 0
  (1) pair sw, perpetual
      attributes: full, newton on
      pair build: full/bin/atomonly
      stencil: full/bin/3d
      bin: standard
Per MPI rank memory allocation (min/avg/max) = 5.273 | 5.273 | 5.273 Mbytes
     Time           Temp          Press          Volume         PotEng       Econserve   
 0              300            2036.3253      10252.255     -2220.2982     -2200.4827    
 0.1            304.38443      2976.4377      10252.255     -2202.1703     -2200.463     
 0.2            297.43632      2973.3513      10252.255     -2199.6214     -2200.4592    
 0.3            286.87414      2902.558       10252.255     -2198.3618     -2200.4571    
 0.4            291.8724       2752.9         10252.255     -2198.2783     -2200.4585    
 0.5            292.4822       3166.215       10252.255     -2201.5161     -2200.4595    
 0.6            308.52283      3264.8999      10252.255     -2200.5001     -2200.4594    
 0.7            290.1466       2984.4398      10252.255     -2199.5919     -2200.4595    
 0.8            312.12249      2953.7167      10252.255     -2201.9735     -2200.4629    
 0.9            306.43032      3118.7544      10252.255     -2199.7147     -2200.4595    
 1              286.21141      3412.0192      10252.255     -2200.4371     -2200.4582    
 1.1            293.53757      3302.5646      10252.255     -2204.0643     -2200.4606    
 1.2            312.87562      3216.7283      10252.255     -2200.227      -2200.4584    
 1.3            292.28829      3272.5719      10252.255     -2199.3146     -2200.4579    
 1.4            292.33498      3397.3375      10252.255     -2199.2884     -2200.4558    
 1.5            288.89958      2963.6415      10252.255     -2199.9559     -2200.4593    
 1.6            306.28117      3431.2107      10252.255     -2202.4505     -2200.4607    
 1.7            314.71365      3476.5006      10252.255     -2199.8322     -2200.4566    
 1.8            291.41706      3460.473       10252.255     -2200.6674     -2200.4569    
 1.9            286.7617       3196.0332      10252.255     -2194.7766     -2200.453     
 2              295.13915      3245.0143      10252.255     -2198.2798     -2200.4567    
 2.1            311.70387      2855.8726      10252.255     -2203.909      -2200.4647    
 2.2            312.56968      3401.0248      10252.255     -2201.024      -2200.4596    
 2.3            308.41744      3255.6326      10252.255     -2203.9173     -2200.4633    
 2.4            312.73563      3397.4         10252.255     -2203.5166     -2200.4624    
 2.5            285.20547      3078.5264      10252.255     -2200.722      -2200.4593    
 2.6            295.85659      3367.2412      10252.255     -2200.8993     -2200.4578    
 2.7            298.87661      3485.6691      10252.255     -2199.5018     -2200.4573    
 2.8            292.22132      3333.7436      10252.255     -2199.3475     -2200.4572    
 2.9            291.98766      3320.9555      10252.255     -2199.3387     -2200.4569    
 3              287.63723      3400.3587      10252.255     -2195.633      -2200.4521    
 3.1            290.32613      3158.8718      10252.255     -2196.749      -2200.4556    
 3.2            292.31277      3469.6406      10252.255     -2201.559      -2200.4579    
 3.3            289.44845      3446.1415      10252.255     -2198.375      -2200.455     
 3.4            307.70726      3622.4372      10252.255     -2204.8658     -2200.4603    
 3.5            311.97366      4013.5679      10252.255     -2198.7715     -2200.4535    
 3.6            291.12389      3421.4849      10252.255     -2199.9855     -2200.457     
 3.7            309.62021      3441.7081      10252.255     -2201.3411     -2200.4581    
 3.8            288.44148      3392.0452      10252.255     -2197.8343     -2200.4547    
 3.9            292.30896      3625.2697      10252.255     -2196.2633     -2200.4525    
 4              288.47231      3474.7192      10252.255     -2201.2255     -2200.4566    
 4.1            299.48639      3542.9862      10252.255     -2199.9179     -2200.4552    
 4.2            303.24751      3490.3449      10252.255     -2200.1679     -2200.4567    
 4.3            306.86852      3534.3676      10252.255     -2200.9602     -2200.457     
 4.4            289.63307      3504.8661      10252.255     -2197.6858     -2200.4532    
 4.5            313.79412      3384.1151      10252.255     -2201.3374     -2200.4583    
 4.6            299.23748      3580.1808      10252.255     -2201.0075     -2200.4563    
 4.7            313.98988      3553.7371      10252.255     -2199.8268     -2200.4566    
 4.8            312.78855      3779.2517      10252.255     -2202.2845     -2200.457     
 4.9            305.25682      3565.5194      10252.255     -2199.1097     -2200.4555    
 5              293.10557      3549.3003      10252.255     -2199.7215     -2200.4553    
 5.1            296.59348      3591.8826      10252.255     -2199.8982     -2200.4548    
 5.2            303.60054      3712.1644      10252.255     -2200.3605     -2200.4543    
 5.3            292.66652      3615.7511      10252.255     -2198.7283     -2200.4541    
 5.4            296.33404      3653.2585      10252.255     -2199.5122     -2200.4548    
 5.5            289.39721      3366.1343      10252.255     -2199.5795     -2200.4552    
 5.6            287.93469      3446.9413      10252.255     -2198.469      -2200.4537    
 5.7            304.386        3662.9967      10252.255     -2201.1989     -2200.4562    
 5.8            307.23204      3573.527       10252.255     -2202.0055     -2200.4576    
 5.9            307.7201       3614.0453      10252.255     -2202.5751     -2200.4566    
 6              310.12823      3797.6153      10252.255     -2201.1356     -2200.4548    
 6.1            310.37772      3780.7504      10252.255     -2200.7075     -2200.4547    
 6.2            304.78898      3682.6624      10252.255     -2200.8498     -2200.4555    
 6.3            296.45459      3630.4885      10252.255     -2199.2909     -2200.4533    
 6.4            306.25665      3727.8747      10252.255     -2200.9878     -2200.4556    
 6.5            289.59036      3630.7063      10252.255     -2196.5563     -2200.451     
 6.6            288.0671       3585.4176      10252.255     -2201.2706     -2200.4557    
 6.7            292.4982       3651.5719      10252.255     -2198.9399     -2200.4535    
 6.8            310.12892      3766.5582      10252.255     -2202.2384     -2200.4563    
 6.9            299.22931      3721.7564      10252.255     -2201.5188     -2200.4567    
 7              314.95064      3650.3216      10252.255     -2203.2775     -2200.4581    
 7.1            290.10357      3601.7136      10252.255     -2200.4569     -2200.4546    
 7.2            294.9271       3734.5256      10252.255     -2199.199      -2200.4528    
 7.3            286.57887      3513.3391      10252.255     -2200.1951     -2200.4549    
 7.4            285.02517      3572.2161      10252.255     -2199.5862     -2200.4535    
 7.5            311.2773       3767.0496      10252.255     -2201.8585     -2200.4555    
 7.6            291.33405      3581.6471      10252.255     -2200.543      -2200.4552    
 7.7            303.35283      3676.5416      10252.255     -2201.8632     -2200.4559    
 7.8            294.33807      3922.7373      10252.255     -2199.6567     -2200.4517    
 7.9            305.02111      3779.1967      10252.255     -2199.3833     -2200.4528    
 8              295.5187       3695.2229      10252.255     -2201.3569     -2200.4558    
 8.1            306.82375      3708.5822      10252.255     -2201.0593     -2200.4553    
 8.2            301.94929      3687.417       10252.255     -2200.7645     -2200.4543    
 8.3            291.67286      3801.4078      10252.255     -2198.4277     -2200.4519    
 8.4            302.53104      3883.667       10252.255     -2200.2281     -2200.4533    
 8.5            291.96563      3629.333       10252.255     -2199.094      -2200.4538    
 8.6            304.57927      3878.2223      10252.255     -2200.4559     -2200.4537    
 8.7            294.70556      3715.7207      10252.255     -2199.8036     -2200.4535    
 8.8            296.61081      3691.742       10252.255     -2200.5065     -2200.4548    
 8.9            286.85204      3763.1271      10252.255     -2199.3652     -2200.4516    
 9              311.66553      3898.5637      10252.255     -2199.8983     -2200.4527    
 9.1            298.25592      3623.3014      10252.255     -2200.7203     -2200.4552    
 9.2            290.93033      3737.2687      10252.255     -2199.7349     -2200.4535    
 9.3            302.17851      3762.542       10252.255     -2200.4782     -2200.4539    
 9.4            304.28485      3856.2824      10252.255     -2200.6176     -2200.4541    
 9.5            298.86683      3963.696       10252.255     -2199.7618     -2200.4524    
 9.6            310.96178      3770.6164      10252.255     -2201.6448     -2200.4557    
 9.7            309.83791      3806.1918      10252.255     -2200.0184     -2200.4532    
 9.8            299.01756      3820.5365      10252.255     -2199.8347     -2200.4527    
 9.9            303.20017      3823.6858      10252.255     -2198.9369     -2200.4528    
 10             293.59087      3822.7384      10252.255     -2200.3624     -2200.4533    
 10.1           286.91093      3672.0181      10252.255     -2199.9214     -2200.4535    
 10.2           301.29865      3797.9099      10252.255     -2200.8726     -2200.4544    
 10.3           301.48869      3711.3383      10252.255     -2200.8859     -2200.4551    
 10.4           308.79792      3887.0658      10252.255     -2200.8492     -2200.4542    
 10.5           288.9936       3757.6382      10252.255     -2200.078      -2200.4528    
 10.6           289.21394      3739.4162      10252.255     -2200.0825     -2200.4538    
 10.7           299.73118      3727.6582      10252.255     -2200.7778     -2200.4544    
 10.8           305.97409      3886.9703      10252.255     -2199.6599     -2200.4526    
 10.9           298.748        3868.7932      10252.255     -2199.691      -2200.4525    
 11             301.72765      3917.1383      10252.255     -2200.4127     -2200.453     
 11.1           312.84477      3777.1569      10252.255     -2201.1647     -2200.4549    
 11.2           305.15624      3719.4486      10252.255     -2200.6824     -2200.4541    
 11.3           301.50193      3847.4842      10252.255     -2200.4396     -2200.4527    
 11.4           294.73634      3792.4613      10252.255     -2199.9928     -2200.4527    
 11.5           289.1571       3683.3623      10252.255     -2199.6244     -2200.4529    
 11.6           311.45466      3842.9899      10252.255     -2201.098      -2200.4536    
 11.7           292.56626      3627.556       10252.255     -2199.3462     -2200.4531    
 11.8           305.88143      3800.8025      10252.255     -2201.2957     -2200.455     
 11.9           298.83852      3731.074       10252.255     -2200.284      -2200.4534    
 12             299.97637      3764.695       10252.255     -2200.3591     -2200.4533    
 12.1           296.41251      3783.2399      10252.255     -2200.1232     -2200.4528    
 12.2           309.04998      3853.5776      10252.255     -2200.9921     -2200.4535    
 12.3           302.68854      3722.9677      10252.255     -2200.5725     -2200.4542    
 12.4           306.32535      3896.5411      10252.255     -2200.8145     -2200.4541    
 12.5           302.43958      3757.5664      10252.255     -2200.0765     -2200.4533    
 12.6           292.27554      3845.3312      10252.255     -2198.8932     -2200.4515    
 12.7           305.7074       3906.4292      10252.255     -2200.3107     -2200.4524    
 12.8           291.7357       3719.3676      10252.255     -2199.4096     -2200.4521    
 12.9           306.0508       3755.8936      10252.255     -2200.8848     -2200.4549    
 13             300.27103      3746.8683      10252.255     -2201.0159     -2200.4539    
 13.1           294.83959      3770.1135      10252.255     -2199.6447     -2200.4527    
 13.2           297.81267      3879.4696      10252.255     -2200.3402     -2200.4532    
 13.3           314.06475      3804.2814      10252.255     -2201.4158     -2200.4553    
 13.4           302.37079      3748.6162      10252.255     -2200.6261     -2200.454     
 13.5           286.97696      3749.0708      10252.255     -2199.6083     -2200.453     
 13.6           301.42799      3876.1511      10252.255     -2200.0437     -2200.4527    
 13.7           290.69227      3679.1383      10252.255     -2199.8348     -2200.4533    
 13.8           302.31396      3952.5151      10252.255     -2200.6021     -2200.453     
 13.9           297.90763      3854.7912      10252.255     -2199.8043     -2200.4525    
 14             290.89338      3846.9141      10252.255     -2199.8373     -2200.4527    
 14.1           307.19202      3710.6325      10252.255     -2200.9165     -2200.4554    
 14.2           313.59189      3837.3975      10252.255     -2200.8339     -2200.4542    
 14.3           293.11839      3883.0982      10252.255     -2199.4794     -2200.452     
 14.4           299.63736      3810.8914      10252.255     -2199.911      -2200.4531    
 14.5           299.5524       3807.0796      10252.255     -2199.9053     -2200.4529    
 14.6           297.37346      3754.1169      10252.255     -2200.2602     -2200.4536    
 14.7           298.5613       3799.3479      10252.255     -2199.8403     -2200.4531    
 14.8           304.32557      3813.839       10252.255     -2200.2213     -2200.4533    
 14.9           313.04304      3799.9099      10252.255     -2200.798      -2200.4542    
 15             299.56926      3738.2538      10252.255     -2200.9196     -2200.4539    
 15.1           302.06662      3768.8731      10252.255     -2200.5874     -2200.4538    
 15.2           304.63594      3832.494       10252.255     -2201.2713     -2200.454     
 15.3           300.52408      3797.3605      10252.255     -2199.9905     -2200.4524    
 15.4           304.67085      3882.2577      10252.255     -2200.2651     -2200.4531    
 15.5           292.32546      3686.1422      10252.255     -2199.9908     -2200.4534    
 15.6           287.93893      3827.6466      10252.255     -2199.7296     -2200.4522    
 15.7           294.51783      3737.5988      10252.255     -2200.1657     -2200.4537    
 15.8           298.64733      3817.5332      10252.255     -2200.4382     -2200.4534    
 15.9           290.66072      3890.5918      10252.255     -2199.8972     -2200.4515    
 16             312.38248      3864.1008      10252.255     -2200.8276     -2200.4542    
 16.1           309.9387       3713.4245      10252.255     -2200.6757     -2200.4543    
 16.2           304.37196      3856.8978      10252.255     -2200.3066     -2200.4529    
 16.3           307.7226       3822.0108      10252.255     -2200.5284     -2200.4534    
 16.4           300.18698      3673.127       10252.255     -2200.5477     -2200.4543    
 16.5           302.42585      3886.8743      10252.255     -2200.6947     -2200.4534    
 16.6           303.0282       3700.3445      10252.255     -2200.736      -2200.4549    
 16.7           294.7246       3647.0357      10252.255     -2200.1993     -2200.4541    
 16.8           310.35518      3849.909       10252.255     -2201.2316     -2200.4539    
 16.9           300.63596      3851.3892      10252.255     -2199.5255     -2200.4516    
 17             296.48713      3846.8405      10252.255     -2200.8736     -2200.453     
 17.1           311.11664      3895.3304      10252.255     -2200.8078     -2200.4538    
 17.2           308.49484      3768.4924      10252.255     -2201.1147     -2200.4553    
 17.3           288.5838       3773.4196      10252.255     -2199.2999     -2200.4522    
 17.4           307.25267      3961.3851      10252.255     -2200.021      -2200.4528    
 17.5           291.67289      3722.7745      10252.255     -2200.0171     -2200.4535    
 17.6           303.83138      3840.9023      10252.255     -2200.8206     -2200.4539    
 17.7           295.76237      3732.5344      10252.255     -2199.7776     -2200.4527    
 17.8           289.50007      3802.1243      10252.255     -2199.3631     -2200.4518    
 17.9           309.45828      3796.0573      10252.255     -2200.6831     -2200.4536    
 18             304.66332      3786.7582      10252.255     -2200.3663     -2200.4535    
 18.1           298.46151      3929.1733      10252.255     -2199.9551     -2200.4519    
 18.2           304.13986      3847.1254      10252.255     -2200.3315     -2200.4532    
 18.3           309.7967       3752.9071      10252.255     -2200.7056     -2200.4536    
 18.4           298.50085      3835.6006      10252.255     -2199.9585     -2200.4527    
 18.5           296.1696       3839.1438      10252.255     -2199.8041     -2200.4523    
 18.6           312.27785      3804.6083      10252.255     -2200.8701     -2200.4543    
 18.7           297.18516      3817.984       10252.255     -2199.8719     -2200.453     
 18.8           298.32838      3893.9883      10252.255     -2200.4461     -2200.4527    
 18.9           300.51962      3950.9188      10252.255     -2199.5722     -2200.4522    
 19             310.12241      3884.1298      10252.255     -2200.7203     -2200.4544    
 19.1           301.51507      3757.2219      10252.255     -2200.651      -2200.4542    
 19.2           297.6149       3861.4484      10252.255     -2200.3928     -2200.4537    
 19.3           291.05928      3780.3089      10252.255     -2199.4618     -2200.453     
 19.4           289.70913      3869.2671      10252.255     -2199.8772     -2200.4519    
 19.5           303.76229      3836.9441      10252.255     -2200.8069     -2200.4533    
 19.6           296.86811      3771.1457      10252.255     -2200.3521     -2200.4539    
 19.7           297.47642      3794.5125      10252.255     -2200.3917     -2200.4534    
 19.8           306.90216      3797.3586      10252.255     -2201.0152     -2200.4543    
 19.9           290.77193      3824.9255      10252.255     -2199.9483     -2200.4528    
 20             310.67354      3983.7873      10252.255     -2200.7658     -2200.4529    
 20.1           311.77166      3867.3682      10252.255     -2200.8392     -2200.4538    
 20.2           301.6685       3804.9166      10252.255     -2200.6702     -2200.4541    
 20.3           291.41211      3864.3579      10252.255     -2199.9907     -2200.4521    
 20.4           302.85475      3785.1697      10252.255     -2200.7486     -2200.4542    
 20.5           293.25677      3754.9702      10252.255     -2200.1134     -2200.453     
 20.6           292.67109      3824.5628      10252.255     -2200.5835     -2200.4528    
 20.7           298.12928      3852.6363      10252.255     -2199.9443     -2200.4529    
 20.8           295.94197      3886.927       10252.255     -2200.3094     -2200.4525    
 20.9           305.52893      3788.5844      10252.255     -2200.9446     -2200.4545    
 21             299.17983      3830.7176      10252.255     -2199.4783     -2200.4523    
 21.1           288.38389      3751.7595      10252.255     -2199.7861     -2200.4521    
 21.2           298.90859      3766.9212      10252.255     -2200.4825     -2200.4534    
 21.3           303.88669      3721.467       10252.255     -2200.8126     -2200.4546    
 21.4           305.3095       3904.4377      10252.255     -2200.4057     -2200.4518    
 21.5           301.26023      3856.478       10252.255     -2200.6461     -2200.4531    
 21.6           296.35944      3693.1607      10252.255     -2200.3231     -2200.4537    
 21.7           308.25921      3683.5792      10252.255     -2202.1186     -2200.4551    
 21.8           290.92719      3816.6542      10252.255     -2199.9785     -2200.4522    
 21.9           286.02737      3798.2585      10252.255     -2199.6543     -2200.4517    
 22             303.22094      3791.778       10252.255     -2200.7914     -2200.4531    
 22.1           292.75561      3688.8395      10252.255     -2199.5872     -2200.4518    
 22.2           300.69633      3708.4268      10252.255     -2201.1335     -2200.4546    
 22.3           301.51201      3708.5996      10252.255     -2200.672      -2200.4541    
 22.4           292.34166      3820.6009      10252.255     -2200.0649     -2200.4528    
 22.5           290.25455      3720.3349      10252.255     -2199.4203     -2200.452     
 22.6           309.85716      3847.0372      10252.255     -2200.717      -2200.4539    
 22.7           293.18494      3781.5178      10252.255     -2199.6141     -2200.4523    
 22.8           306.8106       3925.3844      10252.255     -2200.5144     -2200.4525    
 22.9           305.64934      3838.0226      10252.255     -2200.4379     -2200.4527    
 23             306.1971       3843.4147      10252.255     -2200.4751     -2200.4537    
 23.1           297.76076      3818.8836      10252.255     -2199.9165     -2200.4524    
 23.2           288.8653       3816.6294      10252.255     -2199.3454     -2200.4515    
 23.3           301.66144      3851.2136      10252.255     -2200.192      -2200.4528    
 23.4           304.08896      3833.7271      10252.255     -2200.3529     -2200.4534    
 23.5           307.2887       3829.6244      10252.255     -2200.5642     -2200.4533    
 23.6           308.46879      3849.7267      10252.255     -2200.6632     -2200.4538    
 23.7           295.37198      3927.2926      10252.255     -2199.7809     -2200.4513    
 23.8           304.34216      3860.2477      10252.255     -2200.3756     -2200.4534    
 23.9           306.70856      3931.7633      10252.255     -2200.5316     -2200.4532    
 24             294.76954      3842.646       10252.255     -2199.7416     -2200.4518    
 24.1           296.86898      3807.7363      10252.255     -2199.8809     -2200.4524    
 24.2           301.01759      3752.3769      10252.255     -2200.6523     -2200.4539    
 24.3           287.50047      3702.2905      10252.255     -2199.7579     -2200.4523    
 24.4           298.30002      3785.5798      10252.255     -2200.4718     -2200.453     
 24.5           292.20616      3941.087       10252.255     -2199.0533     -2200.4504    
 24.6           302.42691      3735.3743      10252.255     -2200.7319     -2200.4542    
 24.7           307.55152      3850.4603      10252.255     -2200.5912     -2200.4531    
 24.8           304.62457      3764.0579      10252.255     -2200.3983     -2200.4536    
 24.9           300.61511      3778.5036      10252.255     -2200.6432     -2200.453     
 25             303.28266      3820.761       10252.255     -2200.3125     -2200.4524    
 25.1           304.92163      3767.922       10252.255     -2200.4218     -2200.4534    
 25.2           302.63685      3808.4437      10252.255     -2200.7668     -2200.453     
 25.3           302.47836      3792.699       10252.255     -2200.2601     -2200.4525    
 25.4           289.53111      3671.8806      10252.255     -2200.5        -2200.4535    
 25.5           294.14143      3833.2052      10252.255     -2199.7901     -2200.4515    
 25.6           302.86029      3744.8083      10252.255     -2200.8779     -2200.4543    
 25.7           293.21404      3737.3785      10252.255     -2199.711      -2200.452     
 25.8           289.22391      3841.1906      10252.255     -2200.0072     -2200.4515    
 25.9           305.67545      3795.1451      10252.255     -2200.0442     -2200.4532    
 26             308.30429      3750.3968      10252.255     -2200.7151     -2200.454     
 26.1           305.43164      3782.8203      10252.255     -2200.5243     -2200.453     
 26.2           303.2955       3818.1325      10252.255     -2200.3833     -2200.4531    
 26.3           290.43176      3726.0929      10252.255     -2199.5321     -2200.4516    
 26.4           294.57327      3797.33        10252.255     -2200.3969     -2200.4532    
 26.5           310.46923      3784.3652      10252.255     -2200.9427     -2200.454     
 26.6           294.81902      3795.2659      10252.255     -2199.9109     -2200.4515    
 26.7           310.13397      3825.5907      10252.255     -2200.4084     -2200.4526    
 26.8           308.30865      3716.8516      10252.255     -2201.348      -2200.4547    
 26.9           302.65656      3813.8223      10252.255     -2200.4487     -2200.4525    
 27             301.53389      3828.62        10252.255     -2200.3703     -2200.4523    
 27.1           305.6705       3854.6028      10252.255     -2200.645      -2200.4538    
 27.2           289.80788      3770.6801      10252.255     -2199.5949     -2200.4515    
 27.3           299.22682      3714.4548      10252.255     -2200.2188     -2200.4533    
 27.4           301.26221      3666.9703      10252.255     -2200.354      -2200.4539    
 27.5           292.13304      3685.1738      10252.255     -2199.7493     -2200.4523    
 27.6           290.67033      3660.1318      10252.255     -2200.1622     -2200.4527    
 27.7           298.89426      3741.5911      10252.255     -2200.1697     -2200.4531    
 27.8           302.34432      3792.4404      10252.255     -2200.3969     -2200.4524    
 27.9           304.19301      3776.0106      10252.255     -2200.5199     -2200.4533    
 28             311.16395      3847.333       10252.255     -2200.9812     -2200.4542    
 28.1           301.55227      3749.4455      10252.255     -2200.8686     -2200.4537    
 28.2           292.74769      3755.9891      10252.255     -2200.2857     -2200.4524    
 28.3           292.91101      3709.9852      10252.255     -2200.2974     -2200.4533    
 28.4           296.30945      3657.0648      10252.255     -2200.522      -2200.4534    
 28.5           302.02879      3677.691       10252.255     -2200.9005     -2200.4541    
 28.6           296.58584      3701.0429      10252.255     -2200.0331     -2200.4533    
 28.7           305.51045      3775.8722      10252.255     -2200.6226     -2200.4533    
 28.8           296.02446      3808.7939      10252.255     -2199.9944     -2200.4517    
 28.9           294.15686      3785.0292      10252.255     -2200.3714     -2200.4529    
 29             299.76879      3705.0974      10252.255     -2200.7432     -2200.454     
 29.1           305.14138      3785.6974      10252.255     -2200.5787     -2200.4539    
 29.2           291.03447      3722.3549      10252.255     -2200.1528     -2200.4528    
 29.3           289.60797      3687.058       10252.255     -2200.0588     -2200.4531    
 29.4           289.19496      3736.7362      10252.255     -2200.0317     -2200.4532    
 29.5           296.22762      3619.2404      10252.255     -2200.4969     -2200.454     
 29.6           305.29664      3755.8213      10252.255     -2201.0956     -2200.4536    
 29.7           298.98338      3816.7664      10252.255     -2200.1669     -2200.4531    
 29.8           300.29773      3779.1228      10252.255     -2200.2529     -2200.4523    
 29.9           310.88498      3754.8344      10252.255     -2200.9538     -2200.4539    
 30             303.18959      3792.6524      10252.255     -2200.4445     -2200.4529    
 30.1           307.44487      3801.2929      10252.255     -2200.7256     -2200.4529    
 30.2           299.56862      3846.352       10252.255     -2200.2054     -2200.4529    
 30.3           294.43467      3762.6937      10252.255     -2199.8652     -2200.4519    
 30.4           300.03238      3818.2997      10252.255     -2200.2356     -2200.4525    
 30.5           299.2726       3729.3346      10252.255     -2200.1861     -2200.4532    
 30.6           297.81125      3754.2583      10252.255     -2200.0893     -2200.4529    
 30.7           301.6779       3851.5332      10252.255     -2200.344      -2200.4522    
 30.8           289.53042      3868.5205      10252.255     -2199.5412     -2200.4517    
 30.9           300.41717      3804.3244      10252.255     -2200.2618     -2200.4533    
 31             309.27794      3742.7073      10252.255     -2200.8478     -2200.454     
 31.1           300.06691      3776.5133      10252.255     -2200.2388     -2200.4535    
 31.2           300.62516      3882.3444      10252.255     -2200.275      -2200.4528    
 31.3           299.03815      3823.1496      10252.255     -2200.1709     -2200.4535    
 31.4           297.49864      3793.2722      10252.255     -2200.0681     -2200.4523    
 31.5           303.23666      3736.8193      10252.255     -2200.4478     -2200.4531    
 31.6           300.19501      3735.6598      10252.255     -2200.2468     -2200.453     
 31.7           303.45908      3873.4944      10252.255     -2200.4626     -2200.4531    
 31.8           299.51224      3805.4837      10252.255     -2200.2049     -2200.4518    
 31.9           298.86115      3766.9552      10252.255     -2200.1624     -2200.4523    
 32             310.51597      3806.2656      10252.255     -2200.9346     -2200.4547    
 32.1           298.46389      3754.7828      10252.255     -2200.1278     -2200.4524    
 32.2           297.51117      3751.5695      10252.255     -2200.0649     -2200.4524    
 32.3           297.33598      3804.4611      10252.255     -2200.0532     -2200.4522    
 32.4           291.4696       3667.7435      10252.255     -2199.6659     -2200.4524    
 32.5           295.39473      3642.5948      10252.255     -2200.4258     -2200.4539    
 32.6           297.91608      3690.8297      10252.255     -2200.5923     -2200.4538    
 32.7           290.43465      3794.0251      10252.255     -2199.5913     -2200.452     
 32.8           302.3003       3743.9888      10252.255     -2200.8772     -2200.4543    
 32.9           299.6642       3701.3487      10252.255     -2200.7023     -2200.4541    
 33             293.88946      3740.9049      10252.255     -2200.3194     -2200.4526    
 33.1           296.92574      3710.6112      10252.255     -2200.5212     -2200.4538    
 33.2           294.13084      3749.2557      10252.255     -2200.3353     -2200.4526    
 33.3           309.29742      3717.8283      10252.255     -2201.3395     -2200.455     
 33.4           294.85538      3778.1315      10252.255     -2200.3831     -2200.4525    
 33.5           299.1824       3808.4696      10252.255     -2200.1659     -2200.4522    
 33.6           298.75654      3819.0886      10252.255     -2200.1381     -2200.4525    
 33.7           303.54532      3750.6263      10252.255     -2200.9533     -2200.454     
 33.8           297.75365      3690.8933      10252.255     -2200.5704     -2200.4536    
 33.9           287.75846      3772.6354      10252.255     -2199.909      -2200.4524    
 34             289.38176      3723.6442      10252.255     -2200.0166     -2200.4529    
 34.1           295.16801      3700.4605      10252.255     -2200.399      -2200.4531    
 34.2           291.26203      3655.3796      10252.255     -2200.1406     -2200.4526    
 34.3           295.20508      3790.319       10252.255     -2199.894      -2200.4525    
 34.4           313.35458      3777.8958      10252.255     -2201.0949     -2200.4547    
 34.5           295.99138      3807.9381      10252.255     -2199.9454     -2200.452     
 34.6           304.16791      3833.2101      10252.255     -2200.4865     -2200.453     
 34.7           307.30888      3747.872       10252.255     -2200.6947     -2200.4538    
 34.8           300.84024      3882.757       10252.255     -2200.2661     -2200.4524    
 34.9           312.15768      3755.22        10252.255     -2201.0155     -2200.4543    
 35             307.02823      3751.0355      10252.255     -2200.6758     -2200.4534    
 35.1           291.86212      3782.8694      10252.255     -2199.672      -2200.4513    
 35.2           298.09084      3675.1955      10252.255     -2200.0848     -2200.4527    
 35.3           300.63787      3743.963       10252.255     -2200.7684     -2200.4536    
 35.4           298.31         3671.132       10252.255     -2200.6145     -2200.4535    
 35.5           301.46318      3769.2057      10252.255     -2200.8232     -2200.4539    
 35.6           297.03333      3824.1155      10252.255     -2199.9957     -2200.4515    
 35.7           296.83901      3791.1466      10252.255     -2199.9837     -2200.4524    
 35.8           292.17563      3610.218       10252.255     -2199.6761     -2200.4528    
 35.9           302.64924      3743.9754      10252.255     -2200.3678     -2200.4527    
 36             296.99751      3700.7775      10252.255     -2199.9943     -2200.4525    
 36.1           306.51052      3756.7694      10252.255     -2200.6241     -2200.4539    
 36.2           302.36487      3743.1421      10252.255     -2200.3494     -2200.453     
 36.3           292.30122      3731.4958      10252.255     -2199.6834     -2200.4518    
 36.4           306.24594      3866.0313      10252.255     -2200.6062     -2200.4535    
 36.5           297.18225      3747.1891      10252.255     -2200.0062     -2200.4522    
 36.6           310.41536      3801.6656      10252.255     -2200.8819     -2200.4538    
 36.7           303.41297      3753.0566      10252.255     -2200.4186     -2200.4531    
 36.8           309.85527      3681.8435      10252.255     -2200.8451     -2200.4541    
 36.9           293.44898      3707.1024      10252.255     -2199.7595     -2200.4521    
 37             298.13355      3812.5741      10252.255     -2200.069      -2200.4521    
 37.1           288.84691      3710.48        10252.255     -2199.9541     -2200.4526    
 37.2           296.21094      3731.2824      10252.255     -2200.4412     -2200.4533    
 37.3           289.47035      3703.5718      10252.255     -2199.995      -2200.4524    
 37.4           292.72762      3594.4995      10252.255     -2200.211      -2200.4532    
 37.5           299.44046      3808.9144      10252.255     -2200.6542     -2200.453     
 37.6           306.20553      3737.0354      10252.255     -2201.1023     -2200.4543    
 37.7           288.58119      3781.687       10252.255     -2199.9354     -2200.4515    
 37.8           295.97201      3666.8512      10252.255     -2200.4254     -2200.4533    
 37.9           302.74436      3671.6592      10252.255     -2200.8732     -2200.4538    
 38             293.05235      3607.6867      10252.255     -2200.7368     -2200.454     
 38.1           305.87271      3798.3215      10252.255     -2200.555      -2200.4534    
 38.2           298.65203      3707.8718      10252.255     -2200.59       -2200.4527    
 38.3           298.78203      3819.3332      10252.255     -2200.077      -2200.4521    
 38.4           305.56046      3763.0408      10252.255     -2200.5261     -2200.4534    
 38.5           311.80719      3735.2183      10252.255     -2200.9394     -2200.4541    
 38.6           305.89482      3838.1816      10252.255     -2200.5475     -2200.4527    
 38.7           291.46496      3724.6843      10252.255     -2199.5934     -2200.4517    
 38.8           297.30775      3709.257       10252.255     -2200.4828     -2200.4527    
 38.9           286.3044       3652.3933      10252.255     -2199.7554     -2200.4522    
 39             298.56434      3606.5291      10252.255     -2200.5671     -2200.4541    
 39.1           295.59258      3763.7788      10252.255     -2199.8604     -2200.4522    
 39.2           301.29023      3820.4423      10252.255     -2200.2373     -2200.4527    
 39.3           303.87944      3765.2973      10252.255     -2200.4084     -2200.4527    
 39.4           305.20148      3739.1147      10252.255     -2200.496      -2200.453     
 39.5           298.13558      3807.8423      10252.255     -2200.0285     -2200.4523    
 39.6           314.88169      3701.2863      10252.255     -2201.1363     -2200.4539    
 39.7           308.26036      3649.4108      10252.255     -2200.7104     -2200.4534    
 39.8           302.32162      3725.778       10252.255     -2200.3173     -2200.4526    
 39.9           295.40857      3767.4657      10252.255     -2199.8598     -2200.4517    
 40             300.88219      3681.5733      10252.255     -2200.2227     -2200.4531    
 40.1           295.26752      3684.754       10252.255     -2200.3549     -2200.453     
 40.2           295.68726      3708.5227      10252.255     -2200.3826     -2200.453     
 40.3           294.51551      3664.576       10252.255     -2200.3056     -2200.4533    
 40.4           298.77521      3763.1186      10252.255     -2200.5755     -2200.4527    
 40.5           314.85691      3776.5733      10252.255     -2201.1137     -2200.4537    
 40.6           294.71175      3642.4456      10252.255     -2200.2844     -2200.4528    
 40.7           288.75232      3673.3718      10252.255     -2199.8904     -2200.4525    
 40.8           295.31135      3685.8866      10252.255     -2200.3244     -2200.4532    
 40.9           295.44825      3649.8967      10252.255     -2200.3333     -2200.4531    
 41             294.10322      3731.1176      10252.255     -2199.7309     -2200.4521    
 41.1           302.92972      3839.722       10252.255     -2200.3143     -2200.4525    
 41.2           306.66482      3782.2329      10252.255     -2200.5624     -2200.4539    
 41.3           299.60927      3793.447       10252.255     -2200.095      -2200.4525    
 41.4           308.03385      3829.9102      10252.255     -2200.1195     -2200.4527    
 41.5           288.92433      3789.9326      10252.255     -2199.3804     -2200.4515    
 41.6           307.59354      3794.4986      10252.255     -2200.6153     -2200.4532    
 41.7           301.93023      3744.6249      10252.255     -2200.7556     -2200.4542    
 41.8           300.23695      3753.5046      10252.255     -2200.1245     -2200.4524    
 41.9           295.13309      3726.3553      10252.255     -2199.7875     -2200.4524    
 42             308.69463      3791.8234      10252.255     -2200.6836     -2200.4528    
 42.1           300.39023      3788.3261      10252.255     -2200.1356     -2200.4533    
 42.2           295.48909      3761.8221      10252.255     -2199.8104     -2200.4518    
 42.3           301.84648      3727.1057      10252.255     -2200.2314     -2200.4529    
 42.4           290.77564      3758.2438      10252.255     -2199.4989     -2200.4517    
 42.5           303.0287       3833.208       10252.255     -2200.3094     -2200.4529    
 42.6           301.48527      3747.0982      10252.255     -2200.2082     -2200.4536    
 42.7           300.52498      3763.2145      10252.255     -2200.6518     -2200.4534    
 42.8           295.4234       3687.4584      10252.255     -2200.3143     -2200.4529    
 42.9           299.3693       3657.0085      10252.255     -2200.5759     -2200.4539    
 43             294.48325      3732.6591      10252.255     -2200.2523     -2200.453     
 43.1           312.20317      3770.3762      10252.255     -2201.4236     -2200.4538    
 43.2           298.3631       3741.7266      10252.255     -2200.5088     -2200.4533    
 43.3           291.76813      3822.1978      10252.255     -2200.0723     -2200.4523    
 43.4           301.75293      3700.3225      10252.255     -2200.7333     -2200.4538    
 43.5           302.91695      3678.3787      10252.255     -2200.8102     -2200.4538    
 43.6           293.23006      3827.2169      10252.255     -2199.6667     -2200.4516    
 43.7           305.86376      3790.6951      10252.255     -2200.5027     -2200.4531    
 43.8           301.59271      3772.7539      10252.255     -2200.2202     -2200.4528    
 43.9           298.30024      3701.2425      10252.255     -2200.0026     -2200.4526    
 44             305.19216      3836.4156      10252.255     -2200.9557     -2200.4534    
 44.1           287.50355      3681.5933      10252.255     -2199.7867     -2200.4528    
 44.2           296.26506      3700.8175      10252.255     -2200.3657     -2200.4531    
 44.3           305.53083      3753.4372      10252.255     -2200.9783     -2200.4536    
 44.4           305.07559      3739.9702      10252.255     -2200.949      -2200.4545    
 44.5           302.40069      3758.6975      10252.255     -2200.2608     -2200.4536    
 44.6           292.05247      3789.1162      10252.255     -2200.0969     -2200.4523    
 44.7           300.15587      3764.7485      10252.255     -2200.6343     -2200.4544    
 44.8           293.77029      3792.8182      10252.255     -2200.2109     -2200.4528    
 44.9           304.42036      3859.5117      10252.255     -2200.915      -2200.4534    
 45             299.30695      3759.3246      10252.255     -2200.578      -2200.4542    
 45.1           300.05579      3733.1208      10252.255     -2200.6127     -2200.4534    
 45.2           288.73511      3751.5629      10252.255     -2199.8637     -2200.4522    
 45.3           295.20354      3725.6892      10252.255     -2200.2925     -2200.4537    
 45.4           289.84427      3756.9598      10252.255     -2199.9364     -2200.4517    
 45.5           308.42551      3774.2587      10252.255     -2200.6448     -2200.4543    
 45.6           302.42242      3763.5012      10252.255     -2200.7671     -2200.4542    
 45.7           303.15643      3759.7042      10252.255     -2200.8145     -2200.4531    
 45.8           287.19891      3696.776       10252.255     -2199.231      -2200.4514    
 45.9           291.56868      3801.6396      10252.255     -2200.0249     -2200.4525    
 46             300.67517      3750.1685      10252.255     -2200.6274     -2200.4535    
 46.1           295.76938      3805.7574      10252.255     -2200.3024     -2200.4525    
 46.2           293.44458      3727.103       10252.255     -2200.1488     -2200.4525    
 46.3           311.02531      3740.1886      10252.255     -2200.8161     -2200.454     
 46.4           297.93235      3736.4808      10252.255     -2199.95       -2200.4528    
 46.5           309.62806      3716.6669      10252.255     -2200.7236     -2200.4538    
 46.6           301.67058      3747.9548      10252.255     -2200.197      -2200.4528    
 46.7           296.17538      3720.3695      10252.255     -2199.834      -2200.4528    
 46.8           306.22348      3782.1658      10252.255     -2200.4982     -2200.4533    
 46.9           296.29703      3773.6314      10252.255     -2199.842      -2200.4527    
 47             291.89674      3842.711       10252.255     -2199.5495     -2200.4509    
 47.1           304.9019       3804.4447      10252.255     -2200.4028     -2200.4537    
 47.2           301.6188       3888.1954      10252.255     -2200.1845     -2200.4523    
 47.3           307.64519      3713.7721      10252.255     -2201.1169     -2200.4552    
 47.4           287.31769      3754.0562      10252.255     -2199.8125     -2200.4515    
 47.5           308.841        3832.8891      10252.255     -2200.7253     -2200.454     
 47.6           304.44639      3803.9417      10252.255     -2200.9394     -2200.4538    
 47.7           294.91717      3741.4523      10252.255     -2200.3093     -2200.4531    
 47.8           289.97779      3729.8317      10252.255     -2199.9828     -2200.4528    
 47.9           310.23392      3756.8488      10252.255     -2201.323      -2200.4551    
 48             285.43744      3737.0474      10252.255     -2199.6826     -2200.4525    
 48.1           304.73696      3755.9585      10252.255     -2200.9598     -2200.4549    
 48.2           298.85781      3768.5688      10252.255     -2200.059      -2200.4532    
 48.3           294.56639      3850.0142      10252.255     -2199.7744     -2200.452     
 48.4           308.50794      3802.5134      10252.255     -2200.6973     -2200.4541    
 48.5           299.06731      3900.9832      10252.255     -2200.0724     -2200.4528    
 48.6           295.415        3747.3283      10252.255     -2199.831      -2200.4526    
 48.7           311.07896      3821.7254      10252.255     -2200.8671     -2200.4541    
 48.8           302.38786      3874.2385      10252.255     -2200.2913     -2200.4524    
 48.9           306.6219       3832.7088      10252.255     -2200.0559     -2200.4534    
 49             309.24954      3902.1379      10252.255     -2200.2289     -2200.4529    
 49.1           298.80136      3737.9226      10252.255     -2199.5388     -2200.4529    
 49.2           301.03474      3868.2926      10252.255     -2200.1902     -2200.4529    
 49.3           309.74856      3807.8568      10252.255     -2200.7672     -2200.4544    
 49.4           294.60191      3840.1011      10252.255     -2199.7645     -2200.4521    
 49.5           310.51478      3857.6125      10252.255     -2200.818      -2200.4545    
 49.6           297.37063      3819.1356      10252.255     -2199.9479     -2200.4526    
 49.7           286.9177       3685.7295      10252.255     -2199.7638     -2200.4529    
 49.8           295.19061      3745.2885      10252.255     -2200.3107     -2200.4534    
 49.9           296.98535      3851.9313      10252.255     -2200.4297     -2200.4538    
 50             287.67218      3748.7751      10252.255     -2199.814      -2200.4533    
Loop time of 83.6461 on 1 procs for 50000 steps with 512 atoms

Performance: 51.646 ns/day, 0.465 hours/ns, 597.756 timesteps/s
70.7% CPU use with 1 MPI tasks x no OpenMP threads

MPI task timing breakdown:
Section |  min time  |  avg time  |  max time  |%varavg| %total
---------------------------------------------------------------
Pair    | 80.537     | 80.537     | 80.537     |   0.0 | 96.28
Neigh   | 0          | 0          | 0          |   0.0 |  0.00
Comm    | 0.49495    | 0.49495    | 0.49495    |   0.0 |  0.59
Output  | 1.6703     | 1.6703     | 1.6703     |   0.0 |  2.00
Modify  | 0.59768    | 0.59768    | 0.59768    |   0.0 |  0.71
Other   |            | 0.3457     |            |       |  0.41

Nlocal:            512 ave         512 max         512 min
Histogram: 1 0 0 0 0 0 0 0 0 0
Nghost:           1450 ave        1450 max        1450 min
Histogram: 1 0 0 0 0 0 0 0 0 0
Neighs:              0 ave           0 max           0 min
Histogram: 1 0 0 0 0 0 0 0 0 0
FullNghs:        17408 ave       17408 max       17408 min
Histogram: 1 0 0 0 0 0 0 0 0 0

Total # of neighbors = 17408
Ave neighs/atom = 34
Neighbor list builds = 0
Dangerous builds = 0
undump          1
unfix           4
unfix		5

write_data S300K.dat
System init for write_data ...
write_restart S300K.rest
System init for write_restart ...
Total wall time: 0:01:23
