LAMMPS (23 Jun 2022 - Update 2)
Reading data file ...
  triclinic box = (0 0 0) to (21.724 21.724 21.724) with tilt (0 0 0)
  1 by 1 by 1 MPI processor grid
  reading atoms ...
  512 atoms
  read_data CPU = 0.020 seconds
Reading sw potential file Si.sw with DATE: 2007-06-11
Neighbor list info ...
  update every 1 steps, delay 0 steps, check yes
  max neighbors/atom: 2000, page size: 100000
  master list distance cutoff = 5.77118
  ghost atom cutoff = 5.77118
  binsize = 2.88559, bins = 8 8 8
  1 neighbor lists, perpetual/occasional/extra = 1 0 0
  (1) pair sw, perpetual
      attributes: full, newton on
      pair build: full/bin/atomonly
      stencil: full/bin/3d
      bin: standard
Setting up Verlet run ...
  Unit style    : metal
  Current step  : 0
  Time step     : 0.001
Per MPI rank memory allocation (min/avg/max) = 5.273 | 5.273 | 5.273 Mbytes
     Time           Temp          Press          Volume         PotEng       Econserve   
 0              300            2036.3253      10252.255     -2220.2982     -2200.4827    
 0.1            218.84726      2562.805       10252.255     -2209.5592     -2200.4643    
 0.2            231.36096      3003.2926      10252.255     -2205.8457     -2200.4579    
 0.3            258.28739      3039.363       10252.255     -2204.8703     -2200.4592    
 0.4            252.70328      3038.0129      10252.255     -2201.3733     -2200.4551    
 0.5            278.93722      3151.1513      10252.255     -2201.716      -2200.4562    
 0.6            292.78056      3361.5782      10252.255     -2202.1541     -2200.4567    
 0.7            261.66513      3551.0181      10252.255     -2197.5586     -2200.4486    
 0.8            293.86486      3304.1838      10252.255     -2199.6913     -2200.4544    
 0.9            290.76121      3519.0413      10252.255     -2199.4834     -2200.4515    
 1              269.12779      3846.8596      10252.255     -2196.01       -2200.4462    
 1.1            310.02803      3882.8653      10252.255     -2199.3788     -2200.4511    
 1.2            314.62568      3614.9883      10252.255     -2200.6513     -2200.4539    
 1.3            305.33762      3704.4311      10252.255     -2200.3898     -2200.4533    
 1.4            309.17285      3494.1754      10252.255     -2200.6425     -2200.4526    
 1.5            292.53438      3562.209       10252.255     -2199.0494     -2200.4517    
 1.6            311.1026       3798.351       10252.255     -2201.0104     -2200.4529    
 1.7            316.56032      3599.015       10252.255     -2202.4675     -2200.4556    
 1.8            312.31474      3384.8159      10252.255     -2203.003      -2200.4581    
 1.9            294.05775      3523.1539      10252.255     -2201.3993     -2200.4529    
 2              309.52548      3541.5486      10252.255     -2202.4236     -2200.4555    
 2.1            281.79177      3428.487       10252.255     -2199.3854     -2200.4519    
 2.2            305.75865      3395.5148      10252.255     -2201.3523     -2200.4554    
 2.3            283.28308      3433.4583      10252.255     -2198.7606     -2200.4523    
 2.4            278.73455      3456.0656      10252.255     -2197.0543     -2200.4511    
 2.5            276.44733      3600.2789      10252.255     -2195.3444     -2200.448     
 2.6            327.34484      3704.0705      10252.255     -2200.5192     -2200.4547    
 2.7            280.35281      4049.1265      10252.255     -2196.1083     -2200.4455    
 2.8            299.47061      4024.7301      10252.255     -2197.3735     -2200.4479    
 2.9            313.92199      3778.7914      10252.255     -2199.2531     -2200.4534    
 3              311.3955       3764.4602      10252.255     -2199.8365     -2200.451     
 3.1            306.51264      3697.1151      10252.255     -2199.9455     -2200.4524    
 3.2            313.66379      3737.623       10252.255     -2201.3212     -2200.4531    
 3.3            305.65627      3639.4813      10252.255     -2201.1671     -2200.4544    
 3.4            308.63812      3196.5796      10252.255     -2201.3665     -2200.4569    
 3.5            286.90776      3443.1774      10252.255     -2199.0596     -2200.45      
 3.6            294.23533      3740.9553      10252.255     -2199.1631     -2200.4503    
 3.7            307.82304      3443.9377      10252.255     -2200.5815     -2200.4544    
 3.8            310.82434      3597.4476      10252.255     -2201.4949     -2200.4547    
 3.9            312.76625      3694.6006      10252.255     -2202.466      -2200.4542    
 4              294.16381      3352.544       10252.255     -2200.852      -2200.4545    
 4.1            293.80569      3639.9122      10252.255     -2200.4168     -2200.452     
 4.2            294.55097      3870.2712      10252.255     -2200.1056     -2200.4515    
 4.3            294.00368      3819.6294      10252.255     -2199.6727     -2200.4509    
 4.4            309.73628      3705.595       10252.255     -2201.3577     -2200.4537    
 4.5            294.7693       3708.6076      10252.255     -2200.0217     -2200.4517    
 4.6            308.75081      3446.1649      10252.255     -2200.9476     -2200.4541    
 4.7            293.20452      3625.2984      10252.255     -2199.4704     -2200.4526    
 4.8            306.58357      3606.5469      10252.255     -2200.3542     -2200.4527    
 4.9            297.66458      3711.0887      10252.255     -2199.7635     -2200.4511    
 5              311.57386      3734.4364      10252.255     -2201.4491     -2200.4536    
 5.1            307.88904      3470.5709      10252.255     -2201.2073     -2200.4551    
 5.2            319.50796      3581.002       10252.255     -2203.2645     -2200.4563    
 5.3            302.14031      3297.9556      10252.255     -2202.117      -2200.456     
 5.4            296.70989      3459.0638      10252.255     -2201.757      -2200.4547    
 5.5            299.75882      3732.7169      10252.255     -2201.9575     -2200.4538    
 5.6            305.8287       3746.0454      10252.255     -2202.3593     -2200.4547    
 5.7            294.32976      3784.4047      10252.255     -2201.2226     -2200.452     
 5.8            291.73007      3739.8003      10252.255     -2201.0514     -2200.4525    
 5.9            290.06676      3483.9389      10252.255     -2200.2871     -2200.4542    
 6              287.0354       3246.4723      10252.255     -2199.2303     -2200.4539    
 6.1            287.80393      3717.7903      10252.255     -2198.4713     -2200.4497    
 6.2            294.44924      3622.4821      10252.255     -2198.5448     -2200.451     
 6.3            294.99876      3486.6795      10252.255     -2198.5818     -2200.4517    
 6.4            290.02139      3610.6852      10252.255     -2198.2523     -2200.4509    
 6.5            309.8813       3666.5518      10252.255     -2200.2191     -2200.4533    
 6.6            298.68038      3783.6424      10252.255     -2199.4776     -2200.4516    
 6.7            306.3862       3982.8281      10252.255     -2199.9849     -2200.4499    
 6.8            313.66315      3864.8887      10252.255     -2201.3718     -2200.4538    
 6.9            303.58647      3536.1421      10252.255     -2200.7072     -2200.4547    
 7              297.24714      3597.9683      10252.255     -2200.2873     -2200.4535    
 7.1            302.05788      3543.7822      10252.255     -2200.6063     -2200.4547    
 7.2            298.61564      3588.976       10252.255     -2200.3776     -2200.4534    
 7.3            288.7489       3669.8253      10252.255     -2198.9804     -2200.4511    
 7.4            302.41519      3711.1131      10252.255     -2199.8839     -2200.4519    
 7.5            295.18287      3701.6911      10252.255     -2199.4054     -2200.4511    
 7.6            300.17651      3635.596       10252.255     -2199.7364     -2200.4523    
 7.7            292.33481      3416.6507      10252.255     -2199.2206     -2200.4544    
 7.8            308.46277      3530.0306      10252.255     -2200.2855     -2200.454     
 7.9            285.16028      3639.1463      10252.255     -2197.7618     -2200.4498    
 8              287.71995      3697.3232      10252.255     -2197.1183     -2200.4483    
 8.1            308.94185      3877.675       10252.255     -2199.1126     -2200.4502    
 8.2            307.7047       3876.9238      10252.255     -2199.0319     -2200.4512    
 8.3            319.97474      4035.5602      10252.255     -2201.1628     -2200.4523    
 8.4            322.13612      3910.5365      10252.255     -2202.77       -2200.4546    
 8.5            308.97061      3729.1711      10252.255     -2202.4932     -2200.4549    
 8.6            294.98814      3611.6416      10252.255     -2201.2373     -2200.4536    
 8.7            307.70454      3604.9692      10252.255     -2202.0784     -2200.4548    
 8.8            288.96027      3639.1398      10252.255     -2200.1085     -2200.4521    
 8.9            300.53356      3394.8563      10252.255     -2200.8751     -2200.4543    
 9              292.28899      3524.5269      10252.255     -2199.8196     -2200.4527    
 9.1            290.49168      3503.2516      10252.255     -2199.0722     -2200.4521    
 9.2            293.57492      3662.351       10252.255     -2199.2741     -2200.4503    
 9.3            309.25857      3771.785       10252.255     -2200.9242     -2200.4529    
 9.4            311.6712       3935.7741      10252.255     -2201.8547     -2200.4531    
 9.5            304.945        3826.665       10252.255     -2201.4105     -2200.4532    
 9.6            288.07837      3806.5866      10252.255     -2199.5058     -2200.45      
 9.7            316.18248      3674.7598      10252.255     -2202.4365     -2200.4555    
 9.8            307.09889      3620.6361      10252.255     -2201.8353     -2200.4543    
 9.9            290.48393      3828.8829      10252.255     -2200.7354     -2200.4519    
 10             304.66022      3844.0066      10252.255     -2201.673      -2200.4531    
 10.1           303.15448      3641.2935      10252.255     -2201.5747     -2200.4543    
 10.2           297.53215      3394.6815      10252.255     -2201.2043     -2200.4552    
 10.3           291.48315      3407.0416      10252.255     -2200.8047     -2200.4552    
 10.4           282.05323      3718.1712      10252.255     -2198.9911     -2200.4499    
 10.5           292.44221      3657.0006      10252.255     -2199.1789     -2200.4507    
 10.6           311.49271      3683.3243      10252.255     -2201.1991     -2200.4534    
 10.7           291.98933      3539.0243      10252.255     -2199.9104     -2200.4529    
 10.8           292.45089      3496.2819      10252.255     -2199.4422     -2200.4529    
 10.9           297.31544      3666.73        10252.255     -2199.7624     -2200.4518    
 11             302.54049      3774.0738      10252.255     -2200.1075     -2200.4517    
 11.1           312.51188      3767.4801      10252.255     -2201.5943     -2200.4535    
 11.2           292.15727      3889.9671      10252.255     -2199.7287     -2200.4504    
 11.3           306.86144      3706.8425      10252.255     -2200.7031     -2200.4536    
 11.4           300.51962      3689.259       10252.255     -2200.2839     -2200.4533    
 11.5           304.36379      3653.4794      10252.255     -2200.5382     -2200.4536    
 11.6           290.34463      3426.6165      10252.255     -2199.6125     -2200.4539    
 11.7           293.43078      3850.4898      10252.255     -2199.3787     -2200.4502    
 11.8           280.19663      3781.9627      10252.255     -2197.1948     -2200.4484    
 11.9           309.80862      3599.6374      10252.255     -2199.8034     -2200.4533    
 12             305.28462      3705.3071      10252.255     -2199.8527     -2200.4523    
 12.1           292.24228      3625.379       10252.255     -2198.4781     -2200.4516    
 12.2           292.68574      3744.838       10252.255     -2198.506      -2200.4502    
 12.3           307.01207      3845.2339      10252.255     -2199.4527     -2200.4506    
 12.4           316.425        3462.921       10252.255     -2201.1636     -2200.4549    
 12.5           304.20567      3676.3513      10252.255     -2200.3537     -2200.4521    
 12.6           308.88992      3924.6625      10252.255     -2200.662      -2200.451     
 12.7           308.48254      3609.8838      10252.255     -2200.6377     -2200.4536    
 12.8           306.59096      3697.334       10252.255     -2200.9471     -2200.4526    
 12.9           289.73834      3689.845       10252.255     -2199.1541     -2200.4506    
 13             304.04048      3624.5584      10252.255     -2200.1015     -2200.4533    
 13.1           308.9791       3756.3337      10252.255     -2201.0205     -2200.453     
 13.2           306.97971      3725.2644      10252.255     -2200.8889     -2200.4534    
 13.3           301.15805      3732.0505      10252.255     -2200.5029     -2200.452     
 13.4           288.12787      3787.2073      10252.255     -2198.8573     -2200.4512    
 13.5           294.80376      3604.5679      10252.255     -2199.2987     -2200.4516    
 13.6           303.42299      3771.9028      10252.255     -2199.8686     -2200.4523    
 13.7           310.09191      3866.8433      10252.255     -2200.976      -2200.4526    
 13.8           305.71895      3849.6832      10252.255     -2200.687      -2200.4524    
 13.9           314.66343      3716.3637      10252.255     -2202.2488     -2200.4549    
 14             303.58954      3671.406       10252.255     -2201.5161     -2200.4537    
 14.1           293.84682      3700.7831      10252.255     -2200.4649     -2200.4524    
 14.2           304.18521      3670.8212      10252.255     -2201.149      -2200.4536    
 14.3           294.99512      3671.126       10252.255     -2200.5409     -2200.4525    
 14.4           293.90912      3694.4767      10252.255     -2200.0656     -2200.4513    
 14.5           302.53562      3627.4362      10252.255     -2200.6379     -2200.4537    
 14.6           308.31241      3506.7718      10252.255     -2201.0199     -2200.4542    
 14.7           309.86199      3606.3218      10252.255     -2201.1223     -2200.4542    
 14.8           306.54753      3631.7183      10252.255     -2201.3362     -2200.4546    
 14.9           304.25642      3926.2687      10252.255     -2201.1815     -2200.4512    
 15             308.94759      3864.2163      10252.255     -2201.4934     -2200.4533    
 15.1           291.76067      3771.3337      10252.255     -2200.3569     -2200.452     
 15.2           292.86831      3645.2251      10252.255     -2199.9595     -2200.4525    
 15.3           296.39629      3598.6651      10252.255     -2200.1935     -2200.4534    
 15.4           292.67179      3493.3011      10252.255     -2199.9478     -2200.4538    
 15.5           286.84165      3718.7793      10252.255     -2198.6902     -2200.4504    
 15.6           303.79384      3718.5768      10252.255     -2199.8112     -2200.4517    
 15.7           292.85539      3687.7877      10252.255     -2198.6162     -2200.4511    
 15.8           304.61334      3765.9784      10252.255     -2199.3924     -2200.4506    
 15.9           307.69671      3675.7161      10252.255     -2200.1062     -2200.4524    
 16             306.38743      3681.9306      10252.255     -2200.0202     -2200.4529    
 16.1           306.4589       3735.5505      10252.255     -2200.4509     -2200.4522    
 16.2           305.38649      3625.6021      10252.255     -2200.3805     -2200.4527    
 16.3           297.17065      3462.9136      10252.255     -2199.8383     -2200.4531    
 16.4           293.2311       3684.6781      10252.255     -2199.1286     -2200.4507    
 16.5           309.55882      3669.0379      10252.255     -2200.2086     -2200.4523    
 16.6           302.11853      3777.3933      10252.255     -2199.7176     -2200.4527    
 16.7           308.21825      3947.6699      10252.255     -2200.6619     -2200.4513    
 16.8           300.16612      3750.6795      10252.255     -2200.1309     -2200.4521    
 16.9           302.78258      3930.665       10252.255     -2200.304      -2200.4524    
 17             295.11258      3691.3948      10252.255     -2199.7966     -2200.4516    
 17.1           288.64471      3548.8988      10252.255     -2198.6202     -2200.4525    
 17.2           293.12425      3518.9743      10252.255     -2198.4606     -2200.4512    
 17.3           289.68036      3649.2155      10252.255     -2197.5493     -2200.449     
 17.4           297.42372      3608.2424      10252.255     -2198.0624     -2200.4507    
 17.5           305.6158       3970.6706      10252.255     -2198.9732     -2200.4494    
 17.6           318.03551      3942.5671      10252.255     -2200.9873     -2200.4519    
 17.7           315.4338       3727.4284      10252.255     -2201.8378     -2200.4548    
 17.8           305.97113      3844.4078      10252.255     -2201.6052     -2200.4528    
 17.9           306.19781      3653.5604      10252.255     -2202.0312     -2200.4544    
 18             294.51875      3775.0403      10252.255     -2200.8962     -2200.453     
 18.1           294.16258      3771.2498      10252.255     -2200.4852     -2200.4511    
 18.2           306.29221      3747.5179      10252.255     -2201.2888     -2200.4535    
 18.3           293.82432      3715.1027      10252.255     -2200.0564     -2200.4525    
 18.4           306.27348      3549.3518      10252.255     -2201.295      -2200.4544    
 18.5           298.46902      3724.7769      10252.255     -2200.7787     -2200.4537    
 18.6           293.49554      3688.2218      10252.255     -2200.0193     -2200.4523    
 18.7           299.08526      3813.5007      10252.255     -2200.3879     -2200.4518    
 18.8           304.48207      3818.3361      10252.255     -2200.7455     -2200.4529    
 18.9           290.33703      3729.251       10252.255     -2199.8101     -2200.4518    
 19             292.44132      3575.314       10252.255     -2199.95       -2200.4527    
 19.1           299.13369      3711.4931      10252.255     -2200.3911     -2200.4518    
 19.2           294.63332      3588.2286      10252.255     -2200.0944     -2200.4523    
 19.3           311.28095      3814.6263      10252.255     -2201.9403     -2200.4535    
 19.4           302.80316      3809.0623      10252.255     -2201.3795     -2200.4527    
 19.5           292.66798      3732.7303      10252.255     -2200.7091     -2200.4517    
 19.6           307.80605      3705.9521      10252.255     -2201.711      -2200.4537    
 19.7           298.34642      3603.5053      10252.255     -2201.0864     -2200.4539    
 19.8           307.10992      3628.9592      10252.255     -2201.6657     -2200.4543    
 19.9           304.55046      3734.0665      10252.255     -2201.4956     -2200.4533    
 20             302.92679      3520.4761      10252.255     -2201.3899     -2200.4549    
 20.1           284.09797      3690.5967      10252.255     -2199.092      -2200.451     
 20.2           292.98717      3683.8135      10252.255     -2199.2161     -2200.4512    
 20.3           292.12938      3690.361       10252.255     -2198.6394     -2200.451     
 20.4           301.74179      3799.712       10252.255     -2199.2746     -2200.4513    
 20.5           293.60247      3950.546       10252.255     -2198.7345     -2200.4488    
 20.6           303.1426       3749.3284      10252.255     -2199.3676     -2200.4518    
 20.7           301.72464      3837.6901      10252.255     -2199.2727     -2200.4505    
 20.8           308.52157      3681.6955      10252.255     -2200.2865     -2200.4525    
 20.9           297.01731      3706.6692      10252.255     -2199.5256     -2200.4515    
 21             304.76406      3762.251       10252.255     -2200.0374     -2200.4516    
 21.1           309.36242      3706.0584      10252.255     -2200.9606     -2200.4526    
 21.2           292.033        3661.4844      10252.255     -2199.2881     -2200.451     
 21.3           303.9201       3575.593       10252.255     -2200.0747     -2200.4525    
 21.4           304.53423      3711.959       10252.255     -2200.1146     -2200.4518    
 21.5           294.84629      3683.5957      10252.255     -2199.1338     -2200.4513    
 21.6           311.21415      3594.6953      10252.255     -2200.9584     -2200.4541    
 21.7           295.39312      3714.8028      10252.255     -2199.9105     -2200.4512    
 21.8           299.90863      3590.6066      10252.255     -2200.2104     -2200.4528    
 21.9           295.42015      3793.4937      10252.255     -2199.9131     -2200.452     
 22             289.74816      3796.2989      10252.255     -2198.8591     -2200.4499    
 22.1           295.80782      3782.3162      10252.255     -2199.2604     -2200.4508    
 22.2           305.78209      3622.803       10252.255     -2200.3041     -2200.4539    
 22.3           298.78704      3771.8878      10252.255     -2199.8391     -2200.4509    
 22.4           305.28446      3780.522       10252.255     -2200.2702     -2200.4528    
 22.5           307.95877      3790.6489      10252.255     -2200.9716     -2200.4519    
 22.6           295.45164      3760.5183      10252.255     -2200.1449     -2200.4513    
 22.7           291.99689      3735.8963      10252.255     -2199.917      -2200.4515    
 22.8           293.34231      3557.0042      10252.255     -2199.5654     -2200.4509    
 22.9           301.75077      3588.8715      10252.255     -2200.1222     -2200.4523    
 23             316.68082      3567.1578      10252.255     -2202.2125     -2200.4546    
 23.1           291.94467      3745.6509      10252.255     -2200.5751     -2200.4511    
 23.2           307.93515      3798.3261      10252.255     -2202.1577     -2200.4533    
 23.3           295.95879      3670.1974      10252.255     -2201.3668     -2200.4535    
 23.4           298.60114      3668.161       10252.255     -2201.5414     -2200.4536    
 23.5           292.3746       3646.5597      10252.255     -2201.1302     -2200.4536    
 23.6           293.09274      3637.4864      10252.255     -2200.7209     -2200.4532    
 23.7           309.79936      3694.4988      10252.255     -2202.473      -2200.4545    
 23.8           290.01449      3645.9095      10252.255     -2200.5047     -2200.4526    
 23.9           291.42675      3524.703       10252.255     -2200.0318     -2200.4527    
 24             292.76369      3647.4634      10252.255     -2199.6414     -2200.4519    
 24.1           292.31859      3760.2217      10252.255     -2199.1028     -2200.4501    
 24.2           303.88079      3777.1482      10252.255     -2199.8678     -2200.4514    
 24.3           310.69247      4012.6144      10252.255     -2201.0239     -2200.4513    
 24.4           305.21557      3709.8487      10252.255     -2200.6634     -2200.4526    
 24.5           307.35578      3722.6752      10252.255     -2201.2918     -2200.4538    
 24.6           292.29369      3643.84        10252.255     -2200.2943     -2200.4511    
 24.7           295.99832      3559.4686      10252.255     -2200.5411     -2200.4533    
 24.8           306.34607      3589.463       10252.255     -2201.645      -2200.4545    
 24.9           293.9755       3819.4848      10252.255     -2200.4271     -2200.4516    
 25             301.84017      3717.0965      10252.255     -2200.9478     -2200.4528    
 25.1           299.56791      3647.1738      10252.255     -2200.7979     -2200.453     
 25.2           293.5963       3662.2661      10252.255     -2199.9796     -2200.4521    
 25.3           290.61728      3768.5701      10252.255     -2199.7829     -2200.4522    
 25.4           290.29531      3700.6398      10252.255     -2199.7617     -2200.4522    
 25.5           287.54979      3718.6869      10252.255     -2198.7563     -2200.4506    
 25.6           299.67837      3649.0818      10252.255     -2199.559      -2200.4522    
 25.7           286.91246      3748.1136      10252.255     -2197.8477     -2200.4485    
 25.8           295.40238      3882.7747      10252.255     -2198.4092     -2200.4492    
 25.9           318.85241      3758.1043      10252.255     -2201.2077     -2200.4536    
 26             309.09769      3691.1104      10252.255     -2201.1646     -2200.4539    
 26.1           307.431        3759.6392      10252.255     -2201.0539     -2200.4533    
 26.2           308.19554      3703.901       10252.255     -2201.1045     -2200.4533    
 26.3           297.3231       3741.4635      10252.255     -2200.3852     -2200.4523    
 26.4           293.1664       3765.8182      10252.255     -2199.6577     -2200.4506    
 26.5           294.35736      3677.7201      10252.255     -2199.7377     -2200.4519    
 26.6           298.76946      3687.4351      10252.255     -2200.0296     -2200.4524    
 26.7           306.38499      3628.3925      10252.255     -2200.9551     -2200.4532    
 26.8           298.35675      3689.5609      10252.255     -2200.4242     -2200.4526    
 26.9           296.01991      3801.4826      10252.255     -2200.2688     -2200.4515    
 27             298.57324      3658.4481      10252.255     -2200.4387     -2200.4528    
 27.1           294.80264      3672.8491      10252.255     -2199.8455     -2200.452     
 27.2           292.50764      3683.2926      10252.255     -2199.1985     -2200.4514    
 27.3           306.93451      3737.7624      10252.255     -2200.1524     -2200.4524    
 27.4           297.63398      3807.8807      10252.255     -2199.5359     -2200.4502    
 27.5           307.16813      3973.6958      10252.255     -2200.6397     -2200.4508    
 27.6           316.40024      3750.6728      10252.255     -2202.3364     -2200.4544    
 27.7           305.57901      3750.6071      10252.255     -2201.6213     -2200.4541    
 27.8           291.56904      3647.1706      10252.255     -2200.6943     -2200.4525    
 27.9           292.18151      3751.5855      10252.255     -2200.7341     -2200.4519    
 28             295.48761      3668.7427      10252.255     -2200.9536     -2200.4529    
 28.1           304.1517       3756.2714      10252.255     -2201.5261     -2200.4531    
 28.2           306.5615       3693.075       10252.255     -2201.6851     -2200.453     
 28.3           294.70142      3510.1545      10252.255     -2200.9024     -2200.4536    
 28.4           294.19384      3597.4083      10252.255     -2200.8689     -2200.4537    
 28.5           295.87066      3600.6866      10252.255     -2200.9794     -2200.4534    
 28.6           292.41663      3739.6707      10252.255     -2200.7505     -2200.4526    
 28.7           291.96615      3836.3887      10252.255     -2200.7201     -2200.452     
 28.8           296.07421      3701.9068      10252.255     -2200.9922     -2200.4528    
 28.9           292.83106      3783.9039      10252.255     -2200.7776     -2200.4524    
 29             294.03957      3646.605       10252.255     -2200.8583     -2200.4533    
 29.1           294.80425      3639.2742      10252.255     -2200.5653     -2200.4529    
 29.2           293.35864      3750.3334      10252.255     -2200.0298     -2200.4516    
 29.3           304.16565      3724.245       10252.255     -2200.7449     -2200.4529    
 29.4           297.83027      3613.6935      10252.255     -2200.3264     -2200.4529    
 29.5           299.13076      3732.0468      10252.255     -2200.4113     -2200.4519    
 29.6           293.50611      3621.5468      10252.255     -2199.6106     -2200.4517    
 29.7           309.41237      3704.0759      10252.255     -2200.6617     -2200.4521    
 29.8           307.23948      3741.335       10252.255     -2200.9973     -2200.4531    
 29.9           304.4344       3696.2017      10252.255     -2200.8118     -2200.4528    
 30             291.86165      3694.2147      10252.255     -2199.9799     -2200.4514    
 30.1           293.75892      3625.0292      10252.255     -2199.6932     -2200.4516    
 30.2           293.52802      3666.5667      10252.255     -2199.6779     -2200.4516    
 30.3           294.38632      3757.267       10252.255     -2199.3634     -2200.4511    
 30.4           293.35811      3708.0897      10252.255     -2199.2956     -2200.4512    
 30.5           305.80471      3742.8367      10252.255     -2200.5027     -2200.4528    
 30.6           292.3754       3873.758       10252.255     -2199.1096     -2200.4504    
 30.7           291.20798      3764.3964      10252.255     -2199.0323     -2200.4502    
 30.8           307.64653      3786.7326      10252.255     -2200.6257     -2200.4527    
 30.9           299.01955      3693.9123      10252.255     -2200.0559     -2200.4527    
 31             291.13743      3707.4739      10252.255     -2199.5335     -2200.4509    
 31.1           299.84587      3751.1747      10252.255     -2200.1092     -2200.4515    
 31.2           290.19971      3628.8844      10252.255     -2199.4723     -2200.4517    
 31.3           305.94518      3740.5738      10252.255     -2200.5125     -2200.4518    
 31.4           306.70961      3636.4155      10252.255     -2201.0074     -2200.4531    
 31.5           297.61867      3761.131       10252.255     -2200.4053     -2200.4514    
 31.6           303.22377      3835.1399      10252.255     -2200.7753     -2200.4513    
 31.7           307.5658       3737.5109      10252.255     -2201.5641     -2200.4535    
 31.8           294.0989       3770.737       10252.255     -2200.2828     -2200.4515    
 31.9           305.00546      3765.4182      10252.255     -2201.0037     -2200.452     
 32             294.17183      3701.3104      10252.255     -2200.2883     -2200.4522    
 32.1           292.67466      3694.255       10252.255     -2200.1888     -2200.4516    
 32.2           293.59529      3639.1284      10252.255     -2200.2498     -2200.4518    
 32.3           294.39629      3568.349       10252.255     -2200.3035     -2200.4526    
 32.4           302.09525      3712.9331      10252.255     -2200.8118     -2200.4523    
 32.5           307.59584      3863.7843      10252.255     -2201.1753     -2200.4526    
 32.6           300.73457      3780.9511      10252.255     -2200.7214     -2200.4518    
 32.7           301.15396      3795.6384      10252.255     -2200.749      -2200.4517    
 32.8           296.84319      3682.4196      10252.255     -2200.4649     -2200.4524    
 32.9           299.66599      3672.0539      10252.255     -2200.6509     -2200.4519    
 33             309.35231      3737.5935      10252.255     -2201.2925     -2200.4537    
 33.1           306.02963      3740.6121      10252.255     -2201.4703     -2200.4527    
 33.2           291.70981      3692.577       10252.255     -2200.5241     -2200.4523    
 33.3           295.76816      3640.3053      10252.255     -2200.7923     -2200.4525    
 33.4           299.39717      3668.7432      10252.255     -2201.0319     -2200.4524    
 33.5           296.6261       3632.8812      10252.255     -2200.8488     -2200.4523    
 33.6           308.16616      3621.5212      10252.255     -2202.1534     -2200.4553    
 33.7           300.66975      3704.3057      10252.255     -2201.6565     -2200.4536    
 33.8           288.59299      3646.1021      10252.255     -2200.1032     -2200.4514    
 33.9           289.97604      3648.3088      10252.255     -2199.5326     -2200.4515    
 34             293.42595      3629.8564      10252.255     -2199.326      -2200.4513    
 34.1           294.42079      3601.0142      10252.255     -2199.3919     -2200.4514    
 34.2           292.94477      3764.8236      10252.255     -2199.2933     -2200.4503    
 34.3           309.71883      3669.3934      10252.255     -2201.0458     -2200.4529    
 34.4           291.84871      3818.4932      10252.255     -2199.8632     -2200.4507    
 34.5           305.79631      3615.5356      10252.255     -2200.7864     -2200.4526    
 34.6           292.60041      3615.7976      10252.255     -2199.9137     -2200.4515    
 34.7           294.7848       3674.0609      10252.255     -2200.0574     -2200.451     
 34.8           300.87419      3647.3193      10252.255     -2200.4608     -2200.4522    
 34.9           307.48432      3623.1022      10252.255     -2200.8982     -2200.4529    
 35             294.85058      3617.6927      10252.255     -2199.7228     -2200.4522    
 35.1           292.48475      3660.5269      10252.255     -2199.0685     -2200.4506    
 35.2           297.03511      3599.9779      10252.255     -2199.3695     -2200.451     
 35.3           306.35038      3685.4401      10252.255     -2199.9853     -2200.4515    
 35.4           307.95918      3686.0662      10252.255     -2200.0922     -2200.4521    
 35.5           305.59048      3774.2562      10252.255     -2199.9346     -2200.451     
 35.6           305.31387      3706.1775      10252.255     -2200.2684     -2200.4521    
 35.7           305.60701      3736.0345      10252.255     -2200.287      -2200.4513    
 35.8           293.23158      3820.9707      10252.255     -2199.0209     -2200.4497    
 35.9           306.30294      3730.0144      10252.255     -2199.8872     -2200.4526    
 36             296.96989      3865.5512      10252.255     -2199.2681     -2200.4499    
 36.1           300.63633      3737.8368      10252.255     -2199.5116     -2200.4513    
 36.2           298.16526      3728.6988      10252.255     -2199.3477     -2200.4506    
 36.3           306.72753      3851.9173      10252.255     -2200.3585     -2200.4515    
 36.4           297.87677      3717.3924      10252.255     -2199.7732     -2200.4508    
 36.5           308.26607      3661.9091      10252.255     -2201.0074     -2200.4527    
 36.6           306.37047      3784.142       10252.255     -2200.8814     -2200.452     
 36.7           298.92195      3671.8759      10252.255     -2200.3893     -2200.4518    
 36.8           296.11898      3743.2488      10252.255     -2200.2034     -2200.4511    
 36.9           309.3642       3637.5499      10252.255     -2201.6994     -2200.4537    
 37             298.99519      3595.0165      10252.255     -2201.0138     -2200.453     
 37.1           301.00197      3714.2493      10252.255     -2201.1453     -2200.4519    
 37.2           295.80674      3635.632       10252.255     -2200.8028     -2200.4526    
 37.3           301.91159      3715.7366      10252.255     -2201.2061     -2200.4527    
 37.4           296.22006      3748.6571      10252.255     -2200.8291     -2200.4516    
 37.5           305.03376      3600.4623      10252.255     -2201.7457     -2200.4536    
 37.6           295.20883      3742.9233      10252.255     -2201.0958     -2200.4526    
 37.7           294.71019      3673.7584      10252.255     -2200.7136     -2200.4527    
 37.8           292.86216      3609.5903      10252.255     -2200.1192     -2200.4519    
 37.9           294.6774       3686.9594      10252.255     -2200.2388     -2200.4516    
 38             290.25796      3635.0937      10252.255     -2199.9471     -2200.4518    
 38.1           300.20014      3691.2085      10252.255     -2200.6047     -2200.4527    
 38.2           298.63071      3810.2397      10252.255     -2200.5        -2200.4516    
 38.3           302.60857      3736.125       10252.255     -2200.7631     -2200.452     
 38.4           301.79246      3664.1241      10252.255     -2200.7093     -2200.4521    
 38.5           304.41095      3658.1713      10252.255     -2200.8829     -2200.4527    
 38.6           307.70519      3738.1769      10252.255     -2201.1006     -2200.4529    
 38.7           308.49414      3666.271       10252.255     -2201.1524     -2200.4526    
 38.8           294.90239      3693.3267      10252.255     -2199.9171     -2200.4517    
 38.9           295.47653      3637.2373      10252.255     -2199.9553     -2200.452     
 39             294.84878      3661.723       10252.255     -2199.5729     -2200.4513    
 39.1           290.75829      3632.8993      10252.255     -2199.302      -2200.4506    
 39.2           307.49553      3792.1495      10252.255     -2200.409      -2200.4521    
 39.3           296.3185       3772.898       10252.255     -2199.6699     -2200.4513    
 39.4           291.25638      3830.0675      10252.255     -2198.7564     -2200.4496    
 39.5           304.07444      3793.1342      10252.255     -2199.6042     -2200.4508    
 39.6           298.91088      3663.3835      10252.255     -2199.2637     -2200.4514    
 39.7           303.27199      3644.6074      10252.255     -2199.552      -2200.4515    
 39.8           305.92042      3814.5331      10252.255     -2200.1181     -2200.4517    
 39.9           309.19624      3785.3096      10252.255     -2200.3351     -2200.4523    
 40             296.22407      3705.2657      10252.255     -2199.4772     -2200.4512    
 40.1           307.57521      3713.9451      10252.255     -2200.2272     -2200.4515    
 40.2           307.62181      3640.9537      10252.255     -2200.7357     -2200.4534    
 40.3           300.40848      3640.8225      10252.255     -2200.2573     -2200.4516    
 40.4           297.19885      3759.2305      10252.255     -2200.0448     -2200.4511    
 40.5           305.33992      3593.6194      10252.255     -2200.9371     -2200.4529    
 40.6           294.22874      3579.3281      10252.255     -2199.8206     -2200.4515    
 40.7           293.04836      3679.0109      10252.255     -2199.742      -2200.4508    
 40.8           298.10124      3696.8081      10252.255     -2200.0768     -2200.4519    
 40.9           298.10258      3652.8484      10252.255     -2200.0761     -2200.4511    
 41             306.97907      3703.064       10252.255     -2200.6635     -2200.4522    
 41.1           294.83996      3707.6073      10252.255     -2199.5194     -2200.4508    
 41.2           307.20747      3812.9748      10252.255     -2200.3366     -2200.4511    
 41.3           294.7233       3817.4377      10252.255     -2199.5112     -2200.4502    
 41.4           306.7117       3755.7426      10252.255     -2200.7484     -2200.4523    
 41.5           307.4273       3690.7043      10252.255     -2201.287      -2200.453     
 41.6           296.2194       3525.5373      10252.255     -2200.5462     -2200.4525    
 41.7           295.67181      3588.9239      10252.255     -2200.5095     -2200.452     
 41.8           305.24443      3629.606       10252.255     -2201.4898     -2200.4536    
 41.9           302.96233      3560.4511      10252.255     -2201.339      -2200.4536    
 42             297.82382      3587.4403      10252.255     -2200.9987     -2200.4526    
 42.1           304.05214      3662.6027      10252.255     -2201.4098     -2200.4524    
 42.2           295.18816      3531.8924      10252.255     -2200.8247     -2200.4527    
 42.3           296.33341      3626.5686      10252.255     -2200.8995     -2200.4519    
 42.4           306.61237      3692.8151      10252.255     -2201.5787     -2200.4522    
 42.5           299.71938      3648.863       10252.255     -2201.1237     -2200.4524    
 42.6           290.64444      3615.3066      10252.255     -2200.5236     -2200.4517    
 42.7           291.80411      3575.9484      10252.255     -2200.0584     -2200.4513    
 42.8           299.82415      3596.2248      10252.255     -2200.5893     -2200.4525    
 42.9           295.58026      3534.9413      10252.255     -2200.3078     -2200.4513    
 43             303.7171       3677.8182      10252.255     -2200.8466     -2200.4526    
 43.1           303.02449      3715.2089      10252.255     -2200.8002     -2200.452     
 43.2           289.39265      3639.9772      10252.255     -2199.1973     -2200.4502    
 43.3           294.34972      3728.3654      10252.255     -2199.1511     -2200.4498    
 43.4           309.68397      3655.7705      10252.255     -2200.1665     -2200.4523    
 43.5           303.61886      3643.1136      10252.255     -2199.7647     -2200.4511    
 43.6           309.58017      3644.9724      10252.255     -2200.7924     -2200.4522    
 43.7           294.95116      3676.0876      10252.255     -2199.8244     -2200.4505    
 43.8           301.61927      3628.042       10252.255     -2200.2664     -2200.452     
 43.9           294.55371      3591.4066      10252.255     -2199.4387     -2200.4508    
 44             295.29155      3682.1331      10252.255     -2199.4873     -2200.4507    
 44.1           302.45301      3694.754       10252.255     -2199.9611     -2200.4515    
 44.2           302.95563      3796.9537      10252.255     -2199.9933     -2200.4505    
 44.3           298.27073      3683.1347      10252.255     -2199.6845     -2200.4511    
 44.4           306.42873      3761.1675      10252.255     -2200.2236     -2200.4514    
 44.5           292.79186      3619.9705      10252.255     -2199.3224     -2200.4509    
 44.6           291.43237      3643.9628      10252.255     -2199.2324     -2200.4506    
 44.7           303.47788      3815.0484      10252.255     -2200.0288     -2200.4514    
 44.8           292.89164      3663.0452      10252.255     -2199.329      -2200.4509    
 44.9           299.76247      3659.0534      10252.255     -2199.7842     -2200.4523    
 45             308.09924      3768.4251      10252.255     -2200.3341     -2200.4515    
 45.1           295.98619      3672.434       10252.255     -2199.5332     -2200.4507    
 45.2           299.49423      3633.7256      10252.255     -2199.7661     -2200.4519    
 45.3           305.70365      3646.6351      10252.255     -2200.5535     -2200.4524    
 45.4           302.64717      3694.2947      10252.255     -2200.3513     -2200.4521    
 45.5           301.94674      3653.4872      10252.255     -2200.3046     -2200.4516    
 45.6           306.64615      3715.8181      10252.255     -2201.0547     -2200.4523    
 45.7           299.28689      3782.6803      10252.255     -2200.5676     -2200.4514    
 45.8           291.07023      3665.7119      10252.255     -2200.0244     -2200.4509    
 45.9           302.58489      3612.9694      10252.255     -2200.7867     -2200.4526    
 46             295.62826      3636.2203      10252.255     -2200.3265     -2200.4519    
 46.1           294.30777      3623.5321      10252.255     -2200.2389     -2200.4515    
 46.2           299.6825       3733.2407      10252.255     -2200.5936     -2200.4512    
 46.3           292.89323      3711.6264      10252.255     -2200.145      -2200.4511    
 46.4           306.36397      3572.9847      10252.255     -2201.4581     -2200.454     
 46.5           297.74058      3525.1393      10252.255     -2200.8878     -2200.4534    
 46.6           295.73197      3741.6933      10252.255     -2200.7531     -2200.4513    
 46.7           301.61896      3634.7191      10252.255     -2201.1444     -2200.4537    
 46.8           307.01882      3611.1442      10252.255     -2201.501      -2200.4537    
 46.9           290.48326      3750.3641      10252.255     -2199.7767     -2200.4502    
 47             304.0529       3679.8684      10252.255     -2200.6751     -2200.4523    
 47.1           302.77469      3536.9046      10252.255     -2200.5913     -2200.4529    
 47.2           300.39084      3626.0671      10252.255     -2200.4331     -2200.4521    
 47.3           307.32905      3660.9089      10252.255     -2201.3758     -2200.4525    
 47.4           297.05891      3655.8156      10252.255     -2200.6964     -2200.4515    
 47.5           292.79964      3632.1793      10252.255     -2200.4152     -2200.4515    
 47.6           299.48059      3707.558       10252.255     -2200.8567     -2200.4518    
 47.7           291.77143      3594.4382      10252.255     -2200.3471     -2200.4514    
 47.8           298.3619       3616.3         10252.255     -2200.7837     -2200.4527    
 47.9           290.2074       3592.8641      10252.255     -2200.2438     -2200.4514    
 48             300.04655      3644.5886      10252.255     -2200.8951     -2200.4528    
 48.1           293.05279      3580.9082      10252.255     -2199.9735     -2200.4521    
 48.2           298.02093      3695.0897      10252.255     -2200.3016     -2200.452     
 48.3           300.59614      3633.8114      10252.255     -2200.4726     -2200.4529    
 48.4           292.87001      3639.4199      10252.255     -2199.4899     -2200.4515    
 48.5           296.81278      3750.9949      10252.255     -2199.7498     -2200.4509    
 48.6           307.89652      3690.763       10252.255     -2201.0061     -2200.4536    
 48.7           290.9495       3563.3311      10252.255     -2199.8842     -2200.451     
 48.8           306.27827      3595.5815      10252.255     -2200.8986     -2200.4529    
 48.9           305.26958      3632.621       10252.255     -2200.8323     -2200.4532    
 49             290.81621      3700.4446      10252.255     -2199.2675     -2200.4497    
 49.1           292.82015      3785.4986      10252.255     -2198.9254     -2200.4496    
 49.2           308.51896      3750.0718      10252.255     -2200.5274     -2200.4519    
 49.3           295.2653       3693.1409      10252.255     -2199.651      -2200.4509    
 49.4           306.13351      3707.4685      10252.255     -2200.7762     -2200.4531    
 49.5           299.71141      3696.4908      10252.255     -2200.3514     -2200.4525    
 49.6           291.75598      3634.5003      10252.255     -2199.8241     -2200.4506    
 49.7           294.82653      3604.4232      10252.255     -2199.6867     -2200.4522    
 49.8           301.47007      3625.7545      10252.255     -2200.1256     -2200.4522    
 49.9           306.2257       3604.5747      10252.255     -2200.8514     -2200.4527    
 50             291.01675      3619.1249      10252.255     -2199.8454     -2200.4513    
Loop time of 66.789 on 1 procs for 50000 steps with 512 atoms

Performance: 64.681 ns/day, 0.371 hours/ns, 748.627 timesteps/s
98.7% CPU use with 1 MPI tasks x no OpenMP threads

MPI task timing breakdown:
Section |  min time  |  avg time  |  max time  |%varavg| %total
---------------------------------------------------------------
Pair    | 64.484     | 64.484     | 64.484     |   0.0 | 96.55
Neigh   | 0          | 0          | 0          |   0.0 |  0.00
Comm    | 0.50652    | 0.50652    | 0.50652    |   0.0 |  0.76
Output  | 1.1283     | 1.1283     | 1.1283     |   0.0 |  1.69
Modify  | 0.36008    | 0.36008    | 0.36008    |   0.0 |  0.54
Other   |            | 0.3099     |            |       |  0.46

Nlocal:            512 ave         512 max         512 min
Histogram: 1 0 0 0 0 0 0 0 0 0
Nghost:           1450 ave        1450 max        1450 min
Histogram: 1 0 0 0 0 0 0 0 0 0
Neighs:              0 ave           0 max           0 min
Histogram: 1 0 0 0 0 0 0 0 0 0
FullNghs:        17408 ave       17408 max       17408 min
Histogram: 1 0 0 0 0 0 0 0 0 0

Total # of neighbors = 17408
Ave neighs/atom = 34
Neighbor list builds = 0
Dangerous builds = 0
System init for write_data ...
System init for write_restart ...
Total wall time: 0:01:06
