LAMMPS data file via write_data, version 23 Jun 2022, timestep = 50000

512 atoms
1 atom types

0 21.724 xlo xhi
0 21.724 ylo yhi
0 21.724 zlo zhi
0 0 0 xy xz yz

Masses

1 28.0855

Atoms # atomic

1 1 1.3337151618043162 3.992492977902292 1.3556164004775364 0 0 0
2 1 21.602789232978115 0.09203109146213438 2.7080808961308414 -1 0 0
3 1 1.3122246148499757 1.400389626516843 4.099907761404651 0 0 0
4 1 21.714884450228578 2.7671091602204214 0.01853626021749393 -1 0 0
5 1 4.09796294370295 4.15388507152073 4.002713559646834 0 0 0
6 1 2.667092584720626 0.14531898592429385 21.66628349034428 0 0 -1
7 1 4.009330025628879 1.3797617971486875 1.3071037398455903 0 0 0
8 1 2.6793958506526305 2.7162631201305407 2.650023003784451 0 0 0
9 1 1.3557424388664179 3.9887795810380027 6.770887011948816 0 0 0
10 1 0.07912920687156619 0.014267872432014266 8.265235763415966 0 0 0
11 1 1.4177923032118667 1.4245972721490667 9.525470412912695 0 0 0
12 1 21.662404916550788 2.730361054733664 5.439966651604372 -1 0 0
13 1 4.145760757388254 3.980710066330162 9.468443299184512 0 0 0
14 1 2.7501746943062413 21.713993064101274 5.444004168971221 0 -1 0
15 1 4.074581898406222 1.3598198171501399 6.742875591380819 0 0 0
16 1 2.721396192031338 2.8194473820094594 8.108261638336915 0 0 0
17 1 1.4332179142117676 4.048767281452239 12.193270410828198 0 0 0
18 1 0.05766538212858648 21.719933977165017 13.544747564656783 0 -1 0
19 1 1.3928912571656393 1.3009577447250507 14.918100291814165 0 0 0
20 1 21.711017779920176 2.6865792457732858 10.82857956666545 -1 0 0
21 1 4.073301284827247 4.043734341049522 15.037644425936529 0 0 0
22 1 2.7456842044712038 0.016083059970614908 10.90284235542386 0 0 0
23 1 4.088793000436407 1.3890895303588775 12.184433822903594 0 0 0
24 1 2.7117590835837873 2.675287102993447 13.643797088580731 0 0 0
25 1 1.3646026092694965 4.149613668094984 17.7683691873182 0 0 0
26 1 21.66578839906799 0.12061359468758337 18.98107303223271 -1 0 0
27 1 1.3039888098634618 1.417156508707049 20.311646753432587 0 0 0
28 1 0.12610538967184332 2.7661749093812604 16.36506355332139 0 0 0
29 1 4.199094681578437 4.200578746771222 20.393249344027804 0 0 0
30 1 2.8095158633446924 0.08985423543511192 16.43280296671903 0 0 0
31 1 4.074216982655774 1.4211242144131504 17.73005154861085 0 0 0
32 1 2.6601513426156562 2.814885911968389 19.099546784269716 0 0 0
33 1 1.4986200007598984 9.491472814353791 1.3930996083775264 0 0 0
34 1 0.06721655074786613 5.387348161321406 2.73724104356449 0 0 0
35 1 1.4184734332129068 6.667411669005297 4.121505019744627 0 0 0
36 1 21.716483703513674 8.141441848401042 0.11418858752183249 -1 0 0
37 1 4.0455547293871 9.537539751409767 4.13103798394789 0 0 0
38 1 2.753317061738776 5.399485336853839 0.009994484827247293 0 0 0
39 1 4.122320117818237 6.803889061573433 1.3760967582912584 0 0 0
40 1 2.7996783094437387 8.063505465370772 2.7914901724079866 0 0 0
41 1 1.3214507792131163 9.484160897452314 6.75502292253611 0 0 0
42 1 0.09052140239113443 5.3595134931214785 8.085836975810508 0 0 0
43 1 1.4580822586792224 6.688692291308443 9.529682073211237 0 0 0
44 1 0.009250290334063977 8.088977772977419 5.4473289091071795 0 0 0
45 1 4.1048727399612375 9.442811745269399 9.621223435501577 0 0 0
46 1 2.8239516447825683 5.3834292803134165 5.44616210460829 0 0 0
47 1 4.100205032999955 6.867150701623008 6.76871147655991 0 0 0
48 1 2.7101421895746314 8.173627627332756 8.158496712586468 0 0 0
49 1 1.3590335156757876 9.446887121913583 12.287771410144085 0 0 0
50 1 21.638377426602574 5.305604269604845 13.563936774205992 -1 0 0
51 1 1.2741607511631519 6.734988728778033 14.91429809707994 0 0 0
52 1 0.13832909190378395 7.940268980902595 10.947216152324614 0 0 0
53 1 4.140994061532377 9.492681320846554 14.917439730213776 0 0 0
54 1 2.887321676386208 5.4055827173147835 10.841796311887894 0 0 0
55 1 4.137879905272145 6.788418399487222 12.199928021998451 0 0 0
56 1 2.7549996263702234 8.15619615489373 13.632365024063457 0 0 0
57 1 1.3770675939948476 9.429152240188374 17.688518044608696 0 0 0
58 1 21.676505793568246 5.409759238441874 19.14140757211211 -1 0 0
59 1 1.4099796869164252 6.801151381673518 20.41767354090676 0 0 0
60 1 0.021357968649086883 8.05741693455788 16.37094159675426 0 0 0
61 1 4.1256144944578095 9.520613227848937 20.468684944419785 0 0 0
62 1 2.7202046968656686 5.435572474973285 16.415695938825984 0 0 0
63 1 4.08954301956619 6.840931964575721 17.68171284077142 0 0 0
64 1 2.7935602678658245 8.066308499727006 19.046753678332706 0 0 0
65 1 1.3731637709507152 14.97760921334592 1.3096473440760534 0 0 0
66 1 0.007644320386121454 10.775392745306686 2.6747649498124804 0 0 0
67 1 1.2869633832563352 12.28701941232405 3.9825669039017075 0 0 0
68 1 21.653761136584624 13.66335911265858 0.026316329618696836 -1 0 0
69 1 4.047949516064354 14.910624369002305 4.074449687743398 0 0 0
70 1 2.700714942701241 10.881752981863938 0.06455112877707167 0 0 0
71 1 4.135800752197831 12.250902776973886 1.3447564379557002 0 0 0
72 1 2.66370361400071 13.641577731757142 2.635477690570126 0 0 0
73 1 1.2842293457912202 14.99837881494558 6.757474688842309 0 0 0
74 1 21.669991969030594 10.702752311345442 8.130428971061919 -1 0 0
75 1 1.3336265816896695 12.107623482033052 9.498377771500106 0 0 0
76 1 21.656774783742353 13.57806861304384 5.501335412095988 -1 0 0
77 1 3.996147601212146 14.90642756434562 9.478146955216877 0 0 0
78 1 2.6200066240402076 10.9045948812022 5.3852766546898145 0 0 0
79 1 3.965089093511757 12.23975451881635 6.781589480979358 0 0 0
80 1 2.58082794994804 13.610754995698919 8.142413349330242 0 0 0
81 1 1.4287933592878816 14.932640803375262 12.211354276619236 0 0 0
82 1 21.714086890802175 10.87752028192749 13.595432673146233 -1 0 0
83 1 1.275151489188814 12.230394553964706 14.922424975047955 0 0 0
84 1 0.040851543498996015 13.522535712211434 10.813867889298463 0 0 0
85 1 4.107284873575862 14.837265388976519 14.920100317835187 0 0 0
86 1 2.7064361412008733 10.850393323318679 10.89192375507163 0 0 0
87 1 4.03073992769872 12.137647207830296 12.222807776637644 0 0 0
88 1 2.6403730844729836 13.450350724418607 13.620814434999637 0 0 0
89 1 1.3910800463130442 15.056719000929181 17.62323963082505 0 0 0
90 1 0.10010918157785072 10.800274433909065 19.101387316104823 0 0 0
91 1 1.391744482955168 12.242931589007979 20.511049882998478 0 0 0
92 1 0.04000845424268287 13.60724317497494 16.275298909407887 0 0 0
93 1 4.143674786437922 14.987310588722185 20.371899510687165 0 0 0
94 1 2.7106873084436764 10.859567792076918 16.289024768556786 0 0 0
95 1 4.032947015455831 12.180248862168849 17.668254919729904 0 0 0
96 1 2.731674969419844 13.626678642079478 19.021553618348573 0 0 0
97 1 1.2992298092196688 20.536793521613724 1.3873274699455036 0 0 0
98 1 0.08270715959054785 16.32854126941741 2.6729633125413454 0 0 0
99 1 1.3091361642583126 17.68337642871049 4.047943694709549 0 0 0
100 1 21.694759246152678 19.125513549222863 0.0590396119282066 -1 0 0
101 1 4.060735066460819 20.415049959752736 4.01842463780903 0 0 0
102 1 2.7683284101935857 16.346948947737502 21.72262762475768 0 0 -1
103 1 4.040979244359975 17.81368071041478 1.2395069994337797 0 0 0
104 1 2.712990351592721 19.114721853648987 2.737192354942568 0 0 0
105 1 1.3463333545692935 20.447933438968914 6.812322326469707 0 0 0
106 1 21.679960334624774 16.37030692304121 8.164696373624528 -1 0 0
107 1 1.3586173956341157 17.63092320623363 9.551417424505452 0 0 0
108 1 0.02432479003227125 19.003357573564802 5.419465216831789 0 0 0
109 1 3.966355060133861 20.343312144307287 9.473308703641509 0 0 0
110 1 2.669117921870731 16.212211664339033 5.463828296761877 0 0 0
111 1 4.0646538746633425 17.713790203332316 6.762293569412826 0 0 0
112 1 2.6531369847036292 19.019999740864503 8.11167591465883 0 0 0
113 1 1.362208335512019 20.340231261763083 12.165833027049208 0 0 0
114 1 21.687027460284753 16.28991970060305 13.5926085251044 -1 0 0
115 1 1.3100013092541458 17.679575341206256 14.956958653916095 0 0 0
116 1 21.670764496640416 18.97331903146485 10.743199187810285 -1 0 0
117 1 4.130202443325125 20.382953977760902 14.869181678266255 0 0 0
118 1 2.7399755280590194 16.241346338639197 10.853256320920934 0 0 0
119 1 4.101256292345249 17.669896232954134 12.214522338662508 0 0 0
120 1 2.7025239509177914 19.033446977941033 13.589890174356066 0 0 0
121 1 1.3236217927498453 20.430754186950452 17.621729177992915 0 0 0
122 1 0.04476447361846245 16.332664509010538 19.083695633953326 0 0 0
123 1 1.4065398329215535 17.875223962009827 20.388698246674092 0 0 0
124 1 21.659704422287295 19.118247738387712 16.306174141429665 -1 0 0
125 1 4.045314215719277 20.440992518659392 20.30643291638062 0 0 0
126 1 2.698262172979691 16.266175322464218 16.194067951985243 0 0 0
127 1 4.036207085362981 17.607197675727516 17.621426593513252 0 0 0
128 1 2.7213098047224777 19.078384552132352 18.953760577952675 0 0 0
129 1 6.7044102083979285 4.1856121559633275 1.3311502028380957 0 0 0
130 1 5.3205765562147675 0.029733645686015858 2.6738821300407234 0 0 0
131 1 6.750714984468239 1.3111958668020758 4.090610300427269 0 0 0
132 1 5.424738738359511 2.752666336529192 21.715233006488617 0 0 -1
133 1 9.546355568660355 4.179210967751848 4.086553304329145 0 0 0
134 1 8.256654387765947 0.07112375616086797 21.705265545225178 0 0 -1
135 1 9.48813488765644 1.456827445665046 1.3298166165214778 0 0 0
136 1 8.039500177342592 2.8129264755049808 2.681543004989018 0 0 0
137 1 6.786731511179369 4.129824249978127 6.771301573056164 0 0 0
138 1 5.460005279906852 0.03855048192886378 8.122759260870115 0 0 0
139 1 6.8728658247849514 1.3318668632253696 9.523095523604793 0 0 0
140 1 5.462003553837311 2.748295590128476 5.413764914592108 0 0 0
141 1 9.490290953535256 4.007186857790722 9.494634678856633 0 0 0
142 1 8.219223271490604 0.019282289240679963 5.415368068427996 0 0 0
143 1 9.438149214556798 1.4602942567001398 6.721211956200162 0 0 0
144 1 8.093150971631504 2.749807323638472 8.155786628003828 0 0 0
145 1 6.897120027085067 3.944740468825337 12.28817829656117 0 0 0
146 1 5.445168908756933 0.004673090253562171 13.544907307424708 0 0 0
147 1 6.781338927151346 1.297732142615923 14.957048311841461 0 0 0
148 1 5.548237613479266 2.656044632770937 10.854773295105716 0 0 0
149 1 9.494742093363827 4.099074031609803 14.888694261601412 0 0 0
150 1 8.209930366059565 21.587196527871686 10.811708348481591 0 -1 0
151 1 9.55159073106107 1.2529515123319175 12.1948923975791 0 0 0
152 1 8.253280748517481 2.6135841639059003 13.711970274957444 0 0 0
153 1 6.762591566525751 4.073399073923497 17.562539925620452 0 0 0
154 1 5.357467377534988 0.12671328425724876 19.0240865660236 0 0 0
155 1 6.752551058107244 1.3570946983550312 20.38996538821209 0 0 0
156 1 5.373626285554159 2.6924697598901224 16.304384174300065 0 0 0
157 1 9.405047443388042 4.073674039566236 20.42324745371022 0 0 0
158 1 8.247982318431355 0.004343778845707271 16.367109762254795 0 0 0
159 1 9.535466618791501 1.4547047165013842 17.680145911832614 0 0 0
160 1 8.124448170603031 2.709895012515376 19.01543633233025 0 0 0
161 1 6.890917097710994 9.617752459810438 1.3627960319599657 0 0 0
162 1 5.493579226566235 5.57596644317035 2.738165414274211 0 0 0
163 1 6.883363178208685 6.912574324461319 4.088813691711492 0 0 0
164 1 5.4769665405206265 8.224705174447292 0.046162989426862755 0 0 0
165 1 9.557000802311588 9.661607098715116 4.128587213421412 0 0 0
166 1 8.084107107646352 5.560564840412576 21.69347476611367 0 0 -1
167 1 9.499954627975479 6.898876606587414 1.3930720065932107 0 0 0
168 1 8.24276106140581 8.316711863157165 2.7649879234075816 0 0 0
169 1 6.699056251789989 9.539288981322496 6.701862210848758 0 0 0
170 1 5.3817450593780185 5.416794156439349 8.152950511829216 0 0 0
171 1 6.712590328962853 6.775801844339156 9.503131819680478 0 0 0
172 1 5.381920685866988 8.13811012800889 5.3538910007145235 0 0 0
173 1 9.491974392219875 9.508314427526646 9.587113045365419 0 0 0
174 1 8.148172825754424 5.489336792003015 5.413219593189253 0 0 0
175 1 9.501931391446313 6.869942044397027 6.810293948556687 0 0 0
176 1 8.072191621359726 8.153866584362929 8.07476465461838 0 0 0
177 1 6.7906431606920705 9.47167671244172 12.221750884675094 0 0 0
178 1 5.516769105241952 5.327545195234647 13.642687867154917 0 0 0
179 1 6.790075119848184 6.7884640806199394 15.012405613283432 0 0 0
180 1 5.519492058504065 8.06084092800361 10.869774733779186 0 0 0
181 1 9.469894210644904 9.5244510307979 14.924356389578419 0 0 0
182 1 8.23952422402197 5.422064223147113 10.859300135753736 0 0 0
183 1 9.414933293235372 6.781618222100967 12.359627044143034 0 0 0
184 1 8.0824769806093 8.157834300361829 13.60251494554939 0 0 0
185 1 6.708009136614872 9.521952254502413 17.74112671347844 0 0 0
186 1 5.3968596318955475 5.456231427976194 18.95207699809383 0 0 0
187 1 6.690246235909093 6.852010160659472 20.370517014323593 0 0 0
188 1 5.417338031521932 8.080491572688027 16.325198489869546 0 0 0
189 1 9.53367420663314 9.633767299793083 20.373248590858033 0 0 0
190 1 8.129861578589566 5.376521420540941 16.38673293395313 0 0 0
191 1 9.44856432799327 6.862955879588118 17.73032859474479 0 0 0
192 1 8.16311550210743 8.204374878050409 19.09668387644418 0 0 0
193 1 6.758386666028198 14.96369141423445 1.4966346793597676 0 0 0
194 1 5.440090018591248 10.947868594794034 2.668237072179807 0 0 0
195 1 6.753520237871539 12.266391854939215 4.074933357351042 0 0 0
196 1 5.528351804391732 13.696245839858719 0.013870891542379646 0 0 0
197 1 9.514453759051012 14.873907462892339 4.095156793814537 0 0 0
198 1 8.191061603089986 10.93745702529571 21.60980650461437 0 0 -1
199 1 9.552648461894869 12.273859126905284 1.275526604336384 0 0 0
200 1 8.171534782316616 13.590122752860722 2.674511703038549 0 0 0
201 1 6.763410164112526 14.870027596465532 6.681218112047963 0 0 0
202 1 5.386166131405195 10.824597970960783 8.1443154551763 0 0 0
203 1 6.74335048364341 12.181197529235188 9.480872688519323 0 0 0
204 1 5.31023674003886 13.54673698233184 5.486819075392091 0 0 0
205 1 9.469696327537907 14.902975641158049 9.443949189558197 0 0 0
206 1 8.071648265871625 10.936026430521512 5.478918964842735 0 0 0
207 1 9.47405431284201 12.168505876064469 6.801371935794289 0 0 0
208 1 8.122089032400991 13.647927250619594 8.136331611176436 0 0 0
209 1 6.779036905703602 14.836645107868621 12.142591455144519 0 0 0
210 1 5.461736063620535 10.88532452148577 13.609752156867241 0 0 0
211 1 6.830298714505222 12.205830425562876 15.012732066407793 0 0 0
212 1 5.404656374156227 13.528325777230831 10.843954605976663 0 0 0
213 1 9.414513978981471 14.910741693520439 14.880204530352515 0 0 0
214 1 8.115209355989006 10.86078035524115 10.911278435009603 0 0 0
215 1 9.451283727957403 12.142717692587834 12.265562337045328 0 0 0
216 1 8.109588507662803 13.453529722015737 13.532383406536962 0 0 0
217 1 6.912266143659783 14.911815315584718 17.680328736793076 0 0 0
218 1 5.4668817498189535 10.92285828736971 19.079488859168894 0 0 0
219 1 6.824625139404094 12.34431164719153 20.367370649210464 0 0 0
220 1 5.449840409743132 13.53831339061197 16.3449126041603 0 0 0
221 1 9.588439691490864 14.967379216162772 20.538930589931823 0 0 0
222 1 8.142173362411626 10.864773677583512 16.41980694356856 0 0 0
223 1 9.583468455079153 12.277494495802125 17.70968361056886 0 0 0
224 1 8.315776529694517 13.680204864448081 19.100071453599035 0 0 0
225 1 6.814442152372443 20.527492473078595 1.337906025934691 0 0 0
226 1 5.415808839839515 16.43499877669795 2.637097043994676 0 0 0
227 1 6.829725676448369 17.662739988219315 4.020785035040452 0 0 0
228 1 5.5018603037073985 19.253449813599765 21.666490028060984 0 0 -1
229 1 9.520411874368932 20.26816915739481 3.983491289567321 0 0 0
230 1 8.149980494462891 16.375903353622302 0.05447779331791496 0 0 0
231 1 9.471205174112988 17.764942684996495 1.4425226717468724 0 0 0
232 1 8.065477945710652 19.08010666803432 2.6282374938301056 0 0 0
233 1 6.858826821761974 20.3904402087935 6.696176246217992 0 0 0
234 1 5.375744762546924 16.294585400832833 8.061833310297963 0 0 0
235 1 6.681966694503987 17.665021455533832 9.418550187180507 0 0 0
236 1 5.4737154205482454 19.05832851072592 5.3920073700716875 0 0 0
237 1 9.397452352272433 20.273318986256818 9.38510315320761 0 0 0
238 1 8.065999970520616 16.253029445086998 5.360394121366041 0 0 0
239 1 9.485659386789358 17.53405656005478 6.695200607978061 0 0 0
240 1 8.096422782842762 18.946840192551047 7.99758813881146 0 0 0
241 1 6.839745585907289 20.331630540737052 12.258339513739834 0 0 0
242 1 5.440731347226646 16.150797908418188 13.51314134202942 0 0 0
243 1 6.841518671927421 17.52299381535139 14.966928778386087 0 0 0
244 1 5.414744026013442 18.961522531583316 10.864303690619291 0 0 0
245 1 9.526127746948886 20.314822392641275 14.935680887441428 0 0 0
246 1 8.045510273957753 16.281754799244155 10.737364491945218 0 0 0
247 1 9.561233184622905 17.564067051170394 12.144929621826092 0 0 0
248 1 8.201644626698526 18.86726626695285 13.563679079600544 0 0 0
249 1 6.7293371692228945 20.422710193332836 17.56715025123751 0 0 0
250 1 5.571021416024568 16.215089246412376 18.947510257201785 0 0 0
251 1 6.866971348138831 17.67149968348863 20.350360349755437 0 0 0
252 1 5.386759677754394 18.918710106990208 16.250693163878104 0 0 0
253 1 9.515057891173313 20.377629303367517 20.43757047943147 0 0 0
254 1 8.18128594146175 16.284364962208205 16.342011833370538 0 0 0
255 1 9.601249966762238 17.70501010197454 17.62929806083577 0 0 0
256 1 8.174961228009877 19.027686702107054 18.96340519382555 0 0 0
257 1 12.143361422800247 4.129408160813798 1.4396174242360031 0 0 0
258 1 10.842182141359979 0.07159037088168124 2.699474416748673 0 0 0
259 1 12.20700685014576 1.3636215966619842 3.9659646794134136 0 0 0
260 1 10.874000289178092 2.796114364619498 0.05508512174007641 0 0 0
261 1 14.969212871645732 3.9459875705502494 4.108087547289881 0 0 0
262 1 13.606735351520861 0.015951964218542405 0.07536862652083712 0 0 0
263 1 14.936825878402695 1.3915980917422757 1.3648979723521786 0 0 0
264 1 13.56032587488073 2.733503080530239 2.689392247100492 0 0 0
265 1 12.259795199278702 4.056975985394861 6.784251242336519 0 0 0
266 1 10.775774771553808 21.717896755680762 8.045118275443592 0 -1 0
267 1 12.163013509415105 1.2555726495078223 9.383704075729304 0 0 0
268 1 10.899132846930225 2.727735543001533 5.290723363319613 0 0 0
269 1 14.913001784458306 4.030222020206029 9.366293170817231 0 0 0
270 1 13.566212598312282 0.004827882865958365 5.356914196169957 0 0 0
271 1 14.909170843898803 1.2118765432378082 6.7555460409732575 0 0 0
272 1 13.5935652107924 2.6408100391397418 8.027096011525098 0 0 0
273 1 12.196325413249044 4.069657558385307 12.180002181905355 0 0 0
274 1 10.901049907106588 21.618165676080377 13.488122050176864 0 -1 0
275 1 12.272365708243337 1.4057956313805913 14.908648017522374 0 0 0
276 1 10.935665563256684 2.6185511778332744 10.860769771263902 0 0 0
277 1 14.865939179809578 4.005902190354817 14.849728756458823 0 0 0
278 1 13.55890419347558 21.669085462113188 10.790720845719095 0 -1 0
279 1 14.946533059708187 1.3065322446418226 12.091829121001885 0 0 0
280 1 13.682560597363638 2.664343027747071 13.504644419912948 0 0 0
281 1 12.172715225952501 4.03729715961173 17.64246236063965 0 0 0
282 1 10.935882834042717 0.03661146242376711 19.095264853231757 0 0 0
283 1 12.221351984698229 1.4120871364108214 20.511323421425644 0 0 0
284 1 10.864262998752544 2.737361771313094 16.205599595982864 0 0 0
285 1 14.899707429554734 4.113946437338201 20.41101263371162 0 0 0
286 1 13.61448325089184 21.714990215959343 16.26576393388753 0 -1 0
287 1 14.999026349627414 1.4247435911433657 17.668889511233747 0 0 0
288 1 13.563353363270288 2.700615438170193 19.077310268995674 0 0 0
289 1 12.135408448285247 9.576212158174307 1.436163978526649 0 0 0
290 1 10.877821658570458 5.485895363484992 2.6921924565977915 0 0 0
291 1 12.302376972153219 6.7734124091163785 4.049689374932243 0 0 0
292 1 10.809658533935371 8.278983144651523 0.03212919942595338 0 0 0
293 1 14.825897167875876 9.577039026540845 4.083277612719201 0 0 0
294 1 13.546146721019673 5.407037773862941 0.10830032914867953 0 0 0
295 1 14.921951073506092 6.818084735956966 1.3632665872478897 0 0 0
296 1 13.52547554741936 8.194393056072093 2.6859333651668926 0 0 0
297 1 12.323204274122254 9.444435998570915 6.784414515650889 0 0 0
298 1 10.916858215984409 5.46911605701277 8.1434309355294 0 0 0
299 1 12.245582121980435 6.781410216123218 9.551178510830944 0 0 0
300 1 10.871610108596272 8.159544241693926 5.5216492548380405 0 0 0
301 1 15.029013223748198 9.508339476949159 9.584282008553343 0 0 0
302 1 13.63874466308283 5.4167970576209905 5.347890442431964 0 0 0
303 1 15.053567299801205 6.829722292559234 6.8184680904047665 0 0 0
304 1 13.605181022991781 8.083157799938942 8.257670823710237 0 0 0
305 1 12.340392433018947 9.447247637335172 12.289846853676538 0 0 0
306 1 10.814724218333327 5.47967776693068 13.628452751178656 0 0 0
307 1 12.122347449321884 6.804979966011076 14.99149157170026 0 0 0
308 1 10.853889281109945 8.074991295695014 10.982891446226871 0 0 0
309 1 15.088970286689687 9.47174334583476 15.039519843501607 0 0 0
310 1 13.617919785855525 5.440338410297119 10.793777179014645 0 0 0
311 1 15.041027125324193 6.86007842813121 12.290988094468213 0 0 0
312 1 13.722000093787498 8.057247127348953 13.787778938251199 0 0 0
313 1 12.252058665657346 9.500510889440255 17.71087184272017 0 0 0
314 1 10.78835162010646 5.40251173751921 19.038917890774584 0 0 0
315 1 12.174844945095153 6.737821121626777 20.460238643969987 0 0 0
316 1 10.763864067792667 8.217881890261795 16.406945468388287 0 0 0
317 1 14.850346535356607 9.544224798005418 20.37890284782985 0 0 0
318 1 13.440080256562423 5.40612343519531 16.23362057052461 0 0 0
319 1 14.874587340301145 6.694079436597822 17.63520071828084 0 0 0
320 1 13.56620585341297 8.086841739999782 19.057844401895814 0 0 0
321 1 12.339672218754268 15.029814298869143 1.372871550167663 0 0 0
322 1 10.88610187591396 10.924264763503 2.759154367130289 0 0 0
323 1 12.280768934694276 12.202802710618995 4.11385911004293 0 0 0
324 1 10.97609372618048 13.620057612379654 21.721632851302186 0 0 -1
325 1 14.941821485378837 14.860567681575924 4.149017022304404 0 0 0
326 1 13.496509946047528 10.83734904759054 0.038083098459376075 0 0 0
327 1 14.856809200017528 12.249242554636666 1.3705193718328188 0 0 0
328 1 13.653825382755834 13.544959725920314 2.780506218551572 0 0 0
329 1 12.202533020432007 14.832311402377785 6.801665148082614 0 0 0
330 1 10.870455829808103 10.772260293874586 8.164856781670714 0 0 0
331 1 12.162745040156425 12.178080475807636 9.474514605522414 0 0 0
332 1 10.839844996993122 13.518040961835284 5.414401689187728 0 0 0
333 1 15.09845299909286 14.925456414782937 9.5232853705881 0 0 0
334 1 13.686142086592072 10.984168700857005 5.549257406520061 0 0 0
335 1 14.860176845390198 12.26772451175837 6.92482879253153 0 0 0
336 1 13.5377517596211 13.674706557896018 8.30826219872655 0 0 0
337 1 12.258386908006125 14.741916219152104 12.19502509799741 0 0 0
338 1 10.905357901990227 10.78494766206449 13.583483883520191 0 0 0
339 1 12.19448994186886 12.128616840007158 14.94261386521581 0 0 0
340 1 10.768826067866248 13.524436215299865 10.819712806990331 0 0 0
341 1 14.881738483222142 14.79040377117341 14.881887368818697 0 0 0
342 1 13.64664153044536 10.892336785850386 10.853415111894561 0 0 0
343 1 15.038652018444587 12.11388439937337 12.301200582367107 0 0 0
344 1 13.616078992425143 13.44032626340214 13.579445627824567 0 0 0
345 1 12.19811292192515 14.906680474324952 17.65608758122978 0 0 0
346 1 10.898317471396266 10.936302000692873 18.9625967581999 0 0 0
347 1 12.298990117476597 12.282579753874822 20.374326848472386 0 0 0
348 1 10.854385617689937 13.610933855724008 16.221665298264334 0 0 0
349 1 15.021548487942725 15.021069820548934 20.289402572979565 0 0 0
350 1 13.6726745211223 10.836931235820973 16.33411228194053 0 0 0
351 1 14.94295040236407 12.29511863731698 17.653771530826806 0 0 0
352 1 13.61071682311006 13.677678723361167 19.038547944025733 0 0 0
353 1 12.152494142698869 20.435307314686156 1.3970227311403676 0 0 0
354 1 10.787286888884166 16.296236402708956 2.7098419925989368 0 0 0
355 1 12.18304158443224 17.56365861633666 4.131701758090098 0 0 0
356 1 10.837069186920827 19.024876640526593 0.07552570466435508 0 0 0
357 1 14.878170076438195 20.40587983441758 3.9578671021336658 0 0 0
358 1 13.638944338127828 16.275824635072574 21.708214842211913 0 0 -1
359 1 15.033358012900134 17.666017043515133 1.4060641355117356 0 0 0
360 1 13.502691674691379 18.97834398916571 2.711861777471489 0 0 0
361 1 12.196651629489471 20.33153784740424 6.720291384675471 0 0 0
362 1 10.824169977500643 16.20435262689382 8.065962570360487 0 0 0
363 1 12.170299644202366 17.526197841090685 9.529310733104342 0 0 0
364 1 10.852615350773032 18.859824022655715 5.329016981745753 0 0 0
365 1 14.923121705498817 20.286658737679787 9.480135170939958 0 0 0
366 1 13.5973830582804 16.289767925401218 5.532063944507615 0 0 0
367 1 14.856088761986317 17.76310611275109 6.761093335344939 0 0 0
368 1 13.500118804280891 18.963022884598182 8.14363911427611 0 0 0
369 1 12.240469272735012 20.319750467070392 12.119477696455627 0 0 0
370 1 10.931095160372694 16.172147293541656 13.457197940096021 0 0 0
371 1 12.228676307561445 17.58910415861931 14.826841704347054 0 0 0
372 1 10.833876774393188 18.987865104130762 10.807260641510181 0 0 0
373 1 14.849176899431853 20.34536217985204 14.788844416849448 0 0 0
374 1 13.57812662879172 16.192567685812804 10.854327183804932 0 0 0
375 1 14.951286646979655 17.644928690552028 12.153058269214101 0 0 0
376 1 13.535838515748342 18.99581247831402 13.440376176521442 0 0 0
377 1 12.245338791010427 20.449299770397353 17.66832452208574 0 0 0
378 1 10.957318672015498 16.30082651967581 18.955959138159614 0 0 0
379 1 12.211982936726063 17.740072102283012 20.35249839644098 0 0 0
380 1 11.010752782916859 19.0065861278479 16.330841854366422 0 0 0
381 1 14.954874373962468 20.387943006838025 20.43254812724055 0 0 0
382 1 13.554871067749447 16.23860223531869 16.278693677272972 0 0 0
383 1 14.889037910759313 17.664455737422262 17.660219881884657 0 0 0
384 1 13.623890005333175 19.0114471417574 19.00652323428769 0 0 0
385 1 17.642450485059896 4.050710054810773 1.3067058560716969 0 0 0
386 1 16.272104855734767 0.04947075569407225 2.623392467255627 0 0 0
387 1 17.668958179223374 1.324415665948996 4.003161511868137 0 0 0
388 1 16.338732567044175 2.6419822905625954 21.656599810728896 0 0 -1
389 1 20.30753262048571 4.093219189152863 4.061384433165278 0 0 0
390 1 18.996677537341785 21.699828917629176 0.04462771704310401 0 -1 0
391 1 20.35344906680222 1.3554798674240232 1.3699641036284742 0 0 0
392 1 18.990233143003426 2.7014233414497024 2.695622376487737 0 0 0
393 1 17.570942106288317 4.015148577104317 6.762237272210254 0 0 0
394 1 16.218859861829877 21.69447899978086 8.100692147078156 0 -1 0
395 1 17.552466654700183 1.385820353605625 9.424402771537169 0 0 0
396 1 16.279523184875988 2.5850425433872455 5.448569780768854 0 0 0
397 1 20.396400643140183 4.106295759586755 9.50268073358591 0 0 0
398 1 19.014045857897894 21.674578947787783 5.46874619245788 0 -1 0
399 1 20.36106799605724 1.3497594674870455 6.824335515306302 0 0 0
400 1 18.99075211413411 2.740752886779705 8.262220209788818 0 0 0
401 1 17.62144684013551 4.03704761080075 12.214087273666433 0 0 0
402 1 16.305982137557343 21.689185493539693 13.426416039432889 0 -1 0
403 1 17.592872565675865 1.3444614513584305 14.89550108048673 0 0 0
404 1 16.27507830974551 2.7011767493752665 10.810103130311745 0 0 0
405 1 20.322189741288664 4.029251814150683 14.956210449265837 0 0 0
406 1 18.918514700439594 0.06844679738332983 10.843360836649197 0 0 0
407 1 20.380688821970242 1.3174289579003078 12.214541618608983 0 0 0
408 1 18.99972936018701 2.6528988420603996 13.547909659409816 0 0 0
409 1 17.59051690713497 4.1117377156065595 17.563289878263657 0 0 0
410 1 16.277452426500027 0.04724573651273017 18.96750079874964 0 0 0
411 1 17.685488973256035 1.2948572563966476 20.36848367308271 0 0 0
412 1 16.2879712305646 2.726108335501519 16.194310648043043 0 0 0
413 1 20.248304694760122 4.064234361548511 20.41818265920569 0 0 0
414 1 18.96319260998049 0.023272912836599075 16.30048776359659 0 0 0
415 1 20.398543151958762 1.462006986265289 17.581120057916966 0 0 0
416 1 18.963573308940596 2.7354141376980605 18.948315422092477 0 0 0
417 1 17.574564650142005 9.522208993990853 1.4925300919722144 0 0 0
418 1 16.246441740039014 5.429380662295239 2.745529636513983 0 0 0
419 1 17.628883752944546 6.720920511171272 4.027363466513528 0 0 0
420 1 16.267562570827167 8.246782722934073 0.062334171858668554 0 0 0
421 1 20.287230439554605 9.472282017789325 3.9940473925845286 0 0 0
422 1 18.994417362248978 5.445429712623531 0.13803401943254115 0 0 0
423 1 20.406274913896752 6.711149661215591 1.3725672820366763 0 0 0
424 1 18.95075177945919 8.153579210117938 2.7061605672211226 0 0 0
425 1 17.685579726291593 9.491368528928149 6.740475769802415 0 0 0
426 1 16.27297587264046 5.411989238329663 8.082375980173266 0 0 0
427 1 17.671577031954747 6.761257599118791 9.483862882195218 0 0 0
428 1 16.22220750588345 8.112301616777255 5.331588097023083 0 0 0
429 1 20.38816207082104 9.311565153001318 9.498461546649764 0 0 0
430 1 18.922114212092048 5.3966269496905275 5.510674140741731 0 0 0
431 1 20.36715092803066 6.676107439312415 6.758764600945658 0 0 0
432 1 19.02682232579979 8.010885781945117 8.078945246881174 0 0 0
433 1 17.788469882557578 9.51205827518026 12.235314098400236 0 0 0
434 1 16.2912040325837 5.296993651736593 13.584831363429094 0 0 0
435 1 17.666424659637194 6.69957111181377 14.951341384209034 0 0 0
436 1 16.393844781191902 8.09595177115517 10.931409265114617 0 0 0
437 1 20.41354876145336 9.502080387701115 14.969633870044083 0 0 0
438 1 19.034299937418094 5.442246774718021 10.835031945326248 0 0 0
439 1 20.321811540094508 6.6865902556758945 12.231611277648089 0 0 0
440 1 18.982041541679223 8.12062185148463 13.622188754623249 0 0 0
441 1 17.59066879257086 9.534258979594714 17.687584976023004 0 0 0
442 1 16.26813773495406 5.358984746985317 19.039783823629953 0 0 0