ITEM: TIMESTEP
0
ITEM: NUMBER OF ATOMS
108
ITEM: BOX BOUNDS xy xz yz pp pp pp
0.0000000000000000e+00 1.4908950000000001e+01 0.0000000000000000e+00
0.0000000000000000e+00 1.4908950000000001e+01 0.0000000000000000e+00
0.0000000000000000e+00 8.3639209500000007e+00 0.0000000000000000e+00
ITEM: ATOMS id type x y z
1 1 0 3.72724 0.348497
2 1 0 1.24241 2.43948
3 1 2.48482 1.24241 1.74248
4 1 2.48482 3.72724 1.04549
5 1 0 3.72724 3.13647
6 1 0 1.24241 5.22745
7 1 2.48482 1.24241 4.53046
8 1 2.48482 3.72724 3.83346
9 1 0 3.72724 5.92444
10 1 0 1.24241 8.01542
11 1 2.48482 1.24241 7.31843
12 1 2.48482 3.72724 6.62144
13 1 0 8.69689 0.348497
14 1 0 6.21206 2.43948
15 1 2.48482 6.21206 1.74248
16 1 2.48482 8.69689 1.04549
17 1 0 8.69689 3.13647
18 1 0 6.21206 5.22745
19 1 2.48482 6.21206 4.53046
20 1 2.48482 8.69689 3.83346
21 1 0 8.69689 5.92444
22 1 0 6.21206 8.01542
23 1 2.48482 6.21206 7.31843
24 1 2.48482 8.69689 6.62144
25 1 0 13.6665 0.348497
26 1 0 11.1817 2.43948
27 1 2.48482 11.1817 1.74248
28 1 2.48482 13.6665 1.04549
29 1 0 13.6665 3.13647
30 1 0 11.1817 5.22745
31 1 2.48482 11.1817 4.53046
32 1 2.48482 13.6665 3.83346
33 1 0 13.6665 5.92444
34 1 0 11.1817 8.01542
35 1 2.48482 11.1817 7.31843
36 1 2.48482 13.6665 6.62144
37 1 4.96965 3.72724 0.348497
38 1 4.96965 1.24241 2.43948
39 1 7.45447 1.24241 1.74248
40 1 7.45447 3.72724 1.04549
41 1 4.96965 3.72724 3.13647
42 1 4.96965 1.24241 5.22745
43 1 7.45447 1.24241 4.53046
44 1 7.45447 3.72724 3.83346
45 1 4.96965 3.72724 5.92444
46 1 4.96965 1.24241 8.01542
47 1 7.45447 1.24241 7.31843
48 1 7.45447 3.72724 6.62144
49 1 4.96965 8.69689 0.348497
50 1 4.96965 6.21206 2.43948
51 1 7.45447 6.21206 1.74248
52 1 7.45447 8.69689 1.04549
53 1 4.96965 8.69689 3.13647
54 1 4.96965 6.21206 5.22745
55 1 7.45447 6.21206 4.53046
56 1 7.45447 8.69689 3.83346
57 1 4.96965 8.69689 5.92444
58 1 4.96965 6.21206 8.01542
59 1 7.45447 6.21206 7.31843
60 1 7.45447 8.69689 6.62144
61 1 4.96965 13.6665 0.348497
62 1 4.96965 11.1817 2.43948
63 1 7.45447 11.1817 1.74248
64 1 7.45447 13.6665 1.04549
65 1 4.96965 13.6665 3.13647
66 1 4.96965 11.1817 5.22745
67 1 7.45447 11.1817 4.53046
68 1 7.45447 13.6665 3.83346
69 1 4.96965 13.6665 5.92444
70 1 4.96965 11.1817 8.01542
71 1 7.45447 11.1817 7.31843
72 1 7.45447 13.6665 6.62144
73 1 9.9393 3.72724 0.348497
74 1 9.9393 1.24241 2.43948
75 1 12.4241 1.24241 1.74248
76 1 12.4241 3.72724 1.04549
77 1 9.9393 3.72724 3.13647
78 1 9.9393 1.24241 5.22745
79 1 12.4241 1.24241 4.53046
80 1 12.4241 3.72724 3.83346
81 1 9.9393 3.72724 5.92444
82 1 9.9393 1.24241 8.01542
83 1 12.4241 1.24241 7.31843
84 1 12.4241 3.72724 6.62144
85 1 9.9393 8.69689 0.348497
86 1 9.9393 6.21206 2.43948
87 1 12.4241 6.21206 1.74248
88 1 12.4241 8.69689 1.04549
89 1 9.9393 8.69689 3.13647
90 1 9.9393 6.21206 5.22745
91 1 12.4241 6.21206 4.53046
92 1 12.4241 8.69689 3.83346
93 1 9.9393 8.69689 5.92444
94 1 9.9393 6.21206 8.01542
95 1 12.4241 6.21206 7.31843
96 1 12.4241 8.69689 6.62144
97 1 9.9393 13.6665 0.348497
98 1 9.9393 11.1817 2.43948
99 1 12.4241 11.1817 1.74248
100 1 12.4241 13.6665 1.04549
101 1 9.9393 13.6665 3.13647
102 1 9.9393 11.1817 5.22745
103 1 12.4241 11.1817 4.53046
104 1 12.4241 13.6665 3.83346
105 1 9.9393 13.6665 5.92444
106 1 9.9393 11.1817 8.01542
107 1 12.4241 11.1817 7.31843
108 1 12.4241 13.6665 6.62144
ITEM: TIMESTEP
1
ITEM: NUMBER OF ATOMS
108
ITEM: BOX BOUNDS xy xz yz pp pp pp
0.0000000000000000e+00 1.4908950000000001e+01 0.0000000000000000e+00
0.0000000000000000e+00 1.4908950000000001e+01 0.0000000000000000e+00
0.0000000000000000e+00 8.3639209500000007e+00 0.0000000000000000e+00
ITEM: ATOMS id type x y z
1 1 0 3.72724 0.348497
2 1 0 1.24241 2.43948
3 1 2.48482 1.24241 1.74248
4 1 2.48482 3.72724 1.04549
5 1 0 3.72724 3.13647
6 1 0 1.24241 5.22745
7 1 2.48482 1.24241 4.53046
8 1 2.48482 3.72724 3.83346
9 1 0 3.72724 5.92444
10 1 0 1.24241 8.01542
11 1 2.48482 1.24241 7.31843
12 1 2.48482 3.72724 6.62144
13 1 0 8.69689 0.348497
14 1 0 6.21206 2.43948
15 1 2.48482 6.21206 1.74248
16 1 2.48482 8.69689 1.04549
17 1 0 8.69689 3.13647
18 1 0 6.21206 5.22745
19 1 2.48482 6.21206 4.53046
20 1 2.48482 8.69689 3.83346
21 1 0 8.69689 5.92444
22 1 0 6.21206 8.01542
23 1 2.48482 6.21206 7.31843
24 1 2.48482 8.69689 6.62144
25 1 0 13.6665 0.348497
26 1 0 11.1817 2.43948
27 1 2.48482 11.1817 1.74248
28 1 2.48482 13.6665 1.04549
29 1 0 13.6665 3.13647
30 1 0 11.1817 5.22745
31 1 2.48482 11.1817 4.53046
32 1 2.48482 13.6665 3.83346
33 1 0 13.6665 5.92444
34 1 0 11.1817 8.01542
35 1 2.48482 11.1817 7.31843
36 1 2.48482 13.6665 6.62144
37 1 4.96965 3.72724 0.348497
38 1 4.96965 1.24241 2.43948
39 1 7.45447 1.24241 1.74248
40 1 7.45447 3.72724 1.04549
41 1 4.96965 3.72724 3.13647
42 1 4.96965 1.24241 5.22745
43 1 7.45447 1.24241 4.53046
44 1 7.45447 3.72724 3.83346
45 1 4.96965 3.72724 5.92444
46 1 4.96965 1.24241 8.01542
47 1 7.45447 1.24241 7.31843
48 1 7.45447 3.72724 6.62144
49 1 4.96965 8.69689 0.348497
50 1 4.96965 6.21206 2.43948
51 1 7.45447 6.21206 1.74248
52 1 7.45447 8.69689 1.04549
53 1 4.96965 8.69689 3.13647
54 1 4.96965 6.21206 5.22745
55 1 7.45447 6.21206 4.53046
56 1 7.45447 8.69689 3.83346
57 1 4.96965 8.69689 5.92444
58 1 4.96965 6.21206 8.01542
59 1 7.45447 6.21206 7.31843
60 1 7.45447 8.69689 6.62144
61 1 4.96965 13.6665 0.348497
62 1 4.96965 11.1817 2.43948
63 1 7.45447 11.1817 1.74248
64 1 7.45447 13.6665 1.04549
65 1 4.96965 13.6665 3.13647
66 1 4.96965 11.1817 5.22745
67 1 7.45447 11.1817 4.53046
68 1 7.45447 13.6665 3.83346
69 1 4.96965 13.6665 5.92444
70 1 4.96965 11.1817 8.01542
71 1 7.45447 11.1817 7.31843
72 1 7.45447 13.6665 6.62144
73 1 9.9393 3.72724 0.348497
74 1 9.9393 1.24241 2.43948
75 1 12.4241 1.24241 1.74248
76 1 12.4241 3.72724 1.04549
77 1 9.9393 3.72724 3.13647
78 1 9.9393 1.24241 5.22745
79 1 12.4241 1.24241 4.53046
80 1 12.4241 3.72724 3.83346
81 1 9.9393 3.72724 5.92444
82 1 9.9393 1.24241 8.01542
83 1 12.4241 1.24241 7.31843
84 1 12.4241 3.72724 6.62144
85 1 9.9393 8.69689 0.348497
86 1 9.9393 6.21206 2.43948
87 1 12.4241 6.21206 1.74248
88 1 12.4241 8.69689 1.04549
89 1 9.9393 8.69689 3.13647
90 1 9.9393 6.21206 5.22745
91 1 12.4241 6.21206 4.53046
92 1 12.4241 8.69689 3.83346
93 1 9.9393 8.69689 5.92444
94 1 9.9393 6.21206 8.01542
95 1 12.4241 6.21206 7.31843
96 1 12.4241 8.69689 6.62144
97 1 9.9393 13.6665 0.348497
98 1 9.9393 11.1817 2.43948
99 1 12.4241 11.1817 1.74248
100 1 12.4241 13.6665 1.04549
101 1 9.9393 13.6665 3.13647
102 1 9.9393 11.1817 5.22745
103 1 12.4241 11.1817 4.53046
104 1 12.4241 13.6665 3.83346
105 1 9.9393 13.6665 5.92444
106 1 9.9393 11.1817 8.01542
107 1 12.4241 11.1817 7.31843
108 1 12.4241 13.6665 6.62144
