ITEM: TIMESTEP
0
ITEM: NUMBER OF ATOMS
108
ITEM: BOX BOUNDS xy xz yz pp pp pp
0.0000000000000000e+00 1.4908950000000001e+01 0.0000000000000000e+00
0.0000000000000000e+00 1.4908950000000001e+01 0.0000000000000000e+00
0.0000000000000000e+00 7.8122898000000003e+00 0.0000000000000000e+00
ITEM: ATOMS id type x y z
1 1 0 3.72724 0.325512
2 1 0 1.24241 2.27858
3 1 2.48482 1.24241 1.62756
4 1 2.48482 3.72724 0.976536
5 1 0 3.72724 2.92961
6 1 0 1.24241 4.88268
7 1 2.48482 1.24241 4.23166
8 1 2.48482 3.72724 3.58063
9 1 0 3.72724 5.53371
10 1 0 1.24241 7.48678
11 1 2.48482 1.24241 6.83575
12 1 2.48482 3.72724 6.18473
13 1 0 8.69689 0.325512
14 1 0 6.21206 2.27858
15 1 2.48482 6.21206 1.62756
16 1 2.48482 8.69689 0.976536
17 1 0 8.69689 2.92961
18 1 0 6.21206 4.88268
19 1 2.48482 6.21206 4.23166
20 1 2.48482 8.69689 3.58063
21 1 0 8.69689 5.53371
22 1 0 6.21206 7.48678
23 1 2.48482 6.21206 6.83575
24 1 2.48482 8.69689 6.18473
25 1 0 13.6665 0.325512
26 1 0 11.1817 2.27858
27 1 2.48482 11.1817 1.62756
28 1 2.48482 13.6665 0.976536
29 1 0 13.6665 2.92961
30 1 0 11.1817 4.88268
31 1 2.48482 11.1817 4.23166
32 1 2.48482 13.6665 3.58063
33 1 0 13.6665 5.53371
34 1 0 11.1817 7.48678
35 1 2.48482 11.1817 6.83575
36 1 2.48482 13.6665 6.18473
37 1 4.96965 3.72724 0.325512
38 1 4.96965 1.24241 2.27858
39 1 7.45447 1.24241 1.62756
40 1 7.45447 3.72724 0.976536
41 1 4.96965 3.72724 2.92961
42 1 4.96965 1.24241 4.88268
43 1 7.45447 1.24241 4.23166
44 1 7.45447 3.72724 3.58063
45 1 4.96965 3.72724 5.53371
46 1 4.96965 1.24241 7.48678
47 1 7.45447 1.24241 6.83575
48 1 7.45447 3.72724 6.18473
49 1 4.96965 8.69689 0.325512
50 1 4.96965 6.21206 2.27858
51 1 7.45447 6.21206 1.62756
52 1 7.45447 8.69689 0.976536
53 1 4.96965 8.69689 2.92961
54 1 4.96965 6.21206 4.88268
55 1 7.45447 6.21206 4.23166
56 1 7.45447 8.69689 3.58063
57 1 4.96965 8.69689 5.53371
58 1 4.96965 6.21206 7.48678
59 1 7.45447 6.21206 6.83575
60 1 7.45447 8.69689 6.18473
61 1 4.96965 13.6665 0.325512
62 1 4.96965 11.1817 2.27858
63 1 7.45447 11.1817 1.62756
64 1 7.45447 13.6665 0.976536
65 1 4.96965 13.6665 2.92961
66 1 4.96965 11.1817 4.88268
67 1 7.45447 11.1817 4.23166
68 1 7.45447 13.6665 3.58063
69 1 4.96965 13.6665 5.53371
70 1 4.96965 11.1817 7.48678
71 1 7.45447 11.1817 6.83575
72 1 7.45447 13.6665 6.18473
73 1 9.9393 3.72724 0.325512
74 1 9.9393 1.24241 2.27858
75 1 12.4241 1.24241 1.62756
76 1 12.4241 3.72724 0.976536
77 1 9.9393 3.72724 2.92961
78 1 9.9393 1.24241 4.88268
79 1 12.4241 1.24241 4.23166
80 1 12.4241 3.72724 3.58063
81 1 9.9393 3.72724 5.53371
82 1 9.9393 1.24241 7.48678
83 1 12.4241 1.24241 6.83575
84 1 12.4241 3.72724 6.18473
85 1 9.9393 8.69689 0.325512
86 1 9.9393 6.21206 2.27858
87 1 12.4241 6.21206 1.62756
88 1 12.4241 8.69689 0.976536
89 1 9.9393 8.69689 2.92961
90 1 9.9393 6.21206 4.88268
91 1 12.4241 6.21206 4.23166
92 1 12.4241 8.69689 3.58063
93 1 9.9393 8.69689 5.53371
94 1 9.9393 6.21206 7.48678
95 1 12.4241 6.21206 6.83575
96 1 12.4241 8.69689 6.18473
97 1 9.9393 13.6665 0.325512
98 1 9.9393 11.1817 2.27858
99 1 12.4241 11.1817 1.62756
100 1 12.4241 13.6665 0.976536
101 1 9.9393 13.6665 2.92961
102 1 9.9393 11.1817 4.88268
103 1 12.4241 11.1817 4.23166
104 1 12.4241 13.6665 3.58063
105 1 9.9393 13.6665 5.53371
106 1 9.9393 11.1817 7.48678
107 1 12.4241 11.1817 6.83575
108 1 12.4241 13.6665 6.18473
ITEM: TIMESTEP
1
ITEM: NUMBER OF ATOMS
108
ITEM: BOX BOUNDS xy xz yz pp pp pp
0.0000000000000000e+00 1.4908950000000001e+01 0.0000000000000000e+00
0.0000000000000000e+00 1.4908950000000001e+01 0.0000000000000000e+00
0.0000000000000000e+00 7.8122898000000003e+00 0.0000000000000000e+00
ITEM: ATOMS id type x y z
1 1 -3.64739e-16 3.72724 0.325512
2 1 -2.34475e-16 1.24241 2.27858
3 1 2.48482 1.24241 1.62756
4 1 2.48482 3.72724 0.976536
5 1 -3.90791e-16 3.72724 2.92961
6 1 -1.82369e-16 1.24241 4.88268
7 1 2.48482 1.24241 4.23166
8 1 2.48482 3.72724 3.58063
9 1 -4.6895e-16 3.72724 5.53371
10 1 -2.8658e-16 1.24241 7.48678
11 1 2.48482 1.24241 6.83575
12 1 2.48482 3.72724 6.18473
13 1 -3.64739e-16 8.69689 0.325512
14 1 -3.12633e-16 6.21206 2.27858
15 1 2.48482 6.21206 1.62756
16 1 2.48482 8.69689 0.976536
17 1 -3.90791e-16 8.69689 2.92961
18 1 -1.82369e-16 6.21206 4.88268
19 1 2.48482 6.21206 4.23166
20 1 2.48482 8.69689 3.58063
21 1 -5.21055e-16 8.69689 5.53371
22 1 -2.8658e-16 6.21206 7.48678
23 1 2.48482 6.21206 6.83575
24 1 2.48482 8.69689 6.18473
25 1 -3.64739e-16 13.6665 0.325512
26 1 -3.12633e-16 11.1817 2.27858
27 1 2.48482 11.1817 1.62756
28 1 2.48482 13.6665 0.976536
29 1 -3.90791e-16 13.6665 2.92961
30 1 -1.56317e-16 11.1817 4.88268
31 1 2.48482 11.1817 4.23166
32 1 2.48482 13.6665 3.58063
33 1 -4.95002e-16 13.6665 5.53371
34 1 -2.8658e-16 11.1817 7.48678
35 1 2.48482 11.1817 6.83575
36 1 2.48482 13.6665 6.18473
37 1 4.96965 3.72724 0.325512
38 1 4.96965 1.24241 2.27858
39 1 7.45447 1.24241 1.62756
40 1 7.45447 3.72724 0.976536
41 1 4.96965 3.72724 2.92961
42 1 4.96965 1.24241 4.88268
43 1 7.45447 1.24241 4.23166
44 1 7.45447 3.72724 3.58063
45 1 4.96965 3.72724 5.53371
46 1 4.96965 1.24241 7.48678
47 1 7.45447 1.24241 6.83575
48 1 7.45447 3.72724 6.18473
49 1 4.96965 8.69689 0.325512
50 1 4.96965 6.21206 2.27858
51 1 7.45447 6.21206 1.62756
52 1 7.45447 8.69689 0.976536
53 1 4.96965 8.69689 2.92961
54 1 4.96965 6.21206 4.88268
55 1 7.45447 6.21206 4.23166
56 1 7.45447 8.69689 3.58063
57 1 4.96965 8.69689 5.53371
58 1 4.96965 6.21206 7.48678
59 1 7.45447 6.21206 6.83575
60 1 7.45447 8.69689 6.18473
61 1 4.96965 13.6665 0.325512
62 1 4.96965 11.1817 2.27858
63 1 7.45447 11.1817 1.62756
64 1 7.45447 13.6665 0.976536
65 1 4.96965 13.6665 2.92961
66 1 4.96965 11.1817 4.88268
67 1 7.45447 11.1817 4.23166
68 1 7.45447 13.6665 3.58063
69 1 4.96965 13.6665 5.53371
70 1 4.96965 11.1817 7.48678
71 1 7.45447 11.1817 6.83575
72 1 7.45447 13.6665 6.18473
73 1 9.9393 3.72724 0.325512
74 1 9.9393 1.24241 2.27858
75 1 12.4241 1.24241 1.62756
76 1 12.4241 3.72724 0.976536
77 1 9.9393 3.72724 2.92961
78 1 9.9393 1.24241 4.88268
79 1 12.4241 1.24241 4.23166
80 1 12.4241 3.72724 3.58063
81 1 9.9393 3.72724 5.53371
82 1 9.9393 1.24241 7.48678
83 1 12.4241 1.24241 6.83575
84 1 12.4241 3.72724 6.18473
85 1 9.9393 8.69689 0.325512
86 1 9.9393 6.21206 2.27858
87 1 12.4241 6.21206 1.62756
88 1 12.4241 8.69689 0.976536
89 1 9.9393 8.69689 2.92961
90 1 9.9393 6.21206 4.88268
91 1 12.4241 6.21206 4.23166
92 1 12.4241 8.69689 3.58063
93 1 9.9393 8.69689 5.53371
94 1 9.9393 6.21206 7.48678
95 1 12.4241 6.21206 6.83575
96 1 12.4241 8.69689 6.18473
97 1 9.9393 13.6665 0.325512
98 1 9.9393 11.1817 2.27858
99 1 12.4241 11.1817 1.62756
100 1 12.4241 13.6665 0.976536
101 1 9.9393 13.6665 2.92961
102 1 9.9393 11.1817 4.88268
103 1 12.4241 11.1817 4.23166
104 1 12.4241 13.6665 3.58063
105 1 9.9393 13.6665 5.53371
106 1 9.9393 11.1817 7.48678
107 1 12.4241 11.1817 6.83575
108 1 12.4241 13.6665 6.18473
