LAMMPS (29 Sep 2021)
# SW potential for Silicon

units		metal
dimension       3
processors      * * *
boundary	p p p

#read data
atom_style      atomic

# read restart
#read_restart    S300K.rest

#read data
read_data       Si_512.dat
Reading data file ...
  triclinic box = (0.0000000 0.0000000 0.0000000) to (21.724000 21.724000 21.724000) with tilt (0.0000000 0.0000000 0.0000000)
  1 by 1 by 1 MPI processor grid
  reading atoms ...
  512 atoms
  read_data CPU = 0.008 seconds

#potential
pair_style      sw
pair_coeff      * * Si.sw Si
Reading sw potential file Si.sw with DATE: 2007-06-11

neighbor        2.0 bin
neigh_modify    every 1 delay 0 check yes

#outputs
velocity all create 300.0 121 mom yes dist gaussian
thermo		100
thermo_style	custom time temp press vol pe econserve
dump            1 all custom 100 md.lammpstrj id type xs ys zs vx vy vz fx fy fz
dump_modify     1 format line "%d %d %5.10f %5.10f %5.10f %5.10f %5.10f %5.10f %5.10f %5.10f %5.10f" pbc yes sort id

timestep        1e-3

#initial mixing
fix             4 all npt temp 300 300 0.1 iso 0.0 0.0 1.0
run             50000
Neighbor list info ...
  update every 1 steps, delay 0 steps, check yes
  max neighbors/atom: 2000, page size: 100000
  master list distance cutoff = 5.77118
  ghost atom cutoff = 5.77118
  binsize = 2.88559, bins = 8 8 8
  1 neighbor lists, perpetual/occasional/extra = 1 0 0
  (1) pair sw, perpetual
      attributes: full, newton on
      pair build: full/bin/atomonly
      stencil: full/bin/3d
      bin: standard
Per MPI rank memory allocation (min/avg/max) = 5.273 | 5.273 | 5.273 Mbytes
Time Temp Press Volume PotEng Econserve 
           0          300    2036.3253    10252.255   -2220.2982   -2200.4827 
         0.1    153.15588   -902.79512    10283.887    -2208.529   -2200.4626 
         0.2    163.76668    394.62674    10274.175   -2205.7304   -2200.4581 
         0.3    220.35557    921.72032    10270.961   -2205.2402   -2200.4611 
         0.4    221.97286   -1982.4513    10302.336   -2200.8464   -2200.4566 
         0.5    288.41387    1003.6572    10276.647    -2201.116   -2200.4586 
         0.6    337.16781   -456.35668    10296.859   -2200.9983   -2200.4605 
         0.7    260.99582   -607.29207    10298.525   -2195.0426   -2200.4525 
         0.8    315.44768    691.37668    10281.965   -2200.1314   -2200.4653 
         0.9    300.31051   -1155.1392     10301.04   -2201.2514   -2200.4697 
           1    225.97705    791.05864    10281.211   -2197.4874   -2200.4678 
         1.1    300.21243    116.15004    10289.752   -2201.4923   -2200.4797 
         1.2    332.38889   -485.31157    10294.747   -2201.9194   -2200.4892 
         1.3    318.24513    1075.5784    10281.301   -2199.8674   -2200.4939 
         1.4    313.96066     -1280.43    10303.761   -2199.8443   -2200.5024 
         1.5     277.1499     829.6708    10280.688   -2198.9517   -2200.5126 
         1.6    306.77952   -152.43546     10292.41   -2201.9992    -2200.528 
         1.7    302.57459   -466.80099    10295.304   -2201.7558   -2200.5387 
         1.8    308.68107    1628.8622    10273.438   -2200.9323   -2200.5521 
         1.9    312.86624   -1779.1063    10309.563   -2200.1009   -2200.5606 
           2    328.62762    1153.4479    10280.609   -2200.7851   -2200.5712 
         2.1    307.10058   -58.651782    10287.928   -2200.4665   -2200.5823 
         2.2     305.8824   -2286.7898    10311.976   -2201.4472   -2200.5896 
         2.3     268.8063     2501.312    10262.118   -2199.4371   -2200.5932 
         2.4    269.58288   -2809.0436    10316.012   -2198.8664   -2200.5982 
         2.5    245.73189    698.24028    10282.698   -2196.1972   -2200.5947 
         2.6    331.37432    1243.4743    10279.417   -2201.2576   -2200.6054 
         2.7     305.4843   -2643.6855    10317.882   -2200.0779   -2200.6085 
         2.8    271.45629    3554.9094    10255.374   -2199.4455   -2200.6057 
         2.9    283.72995   -2183.0134    10312.786   -2200.4766   -2200.6109 
           3    312.21737    547.36798    10284.423    -2201.661   -2200.6138 
         3.1     291.8698    2049.6462    10270.392   -2199.7516   -2200.6108 
         3.2    318.06143   -3275.7429    10326.121   -2201.2759   -2200.6138 
         3.3    287.68046    3868.8946    10252.052     -2199.36   -2200.6115 
         3.4    309.53642   -2877.1243    10315.972   -2200.8578   -2200.6168 
         3.5    292.41072   -844.94489    10295.291   -2200.3888   -2200.6155 
         3.6    291.95939     2885.653    10259.375   -2200.9129   -2200.6127 
         3.7    277.22504   -4169.0346    10331.212   -2199.7251   -2200.6095 
         3.8    322.84301    3326.9678    10257.778   -2201.1005   -2200.6084 
         3.9    349.70516   -354.13486    10296.808   -2202.5262   -2200.6063 
           4    287.37288   -2352.6219    10313.125   -2198.9547   -2200.5997 
         4.1    288.50345    3726.4211     10252.33   -2199.9999   -2200.5946 
         4.2    290.68765   -3059.7933    10321.711   -2201.3895   -2200.5914 
         4.3    281.56503    1547.3215    10271.565   -2202.5124   -2200.5886 
         4.4    273.59135    1174.7555    10276.898   -2201.7893   -2200.5798 
         4.5    307.43029   -2408.6033    10312.424   -2202.2433   -2200.5764 
         4.6    267.17601    2267.5909     10265.09   -2198.4964   -2200.5645 
         4.7    303.56116   -1496.3676    10306.236   -2199.7862   -2200.5583 
         4.8    317.56275    104.04311    10289.669   -2200.4926    -2200.554 
         4.9    285.53234    1126.4372    10279.656   -2199.2462   -2200.5459 
           5    301.47983   -1145.4433    10301.858   -2201.8153   -2200.5429 
         5.1    274.12389     1173.284    10275.897   -2200.0477   -2200.5378 
         5.2    306.02514   -719.13056     10298.09   -2201.2971   -2200.5319 
         5.3    292.21206   -185.28391    10289.146   -2199.9457   -2200.5286 
         5.4    300.29463    306.17928    10286.305   -2199.9915   -2200.5254 
         5.5    322.55677     -602.635    10298.249   -2201.3126   -2200.5212 
         5.6    327.89325    1394.7421    10277.861   -2202.4565   -2200.5187 
         5.7    289.90556   -300.04347    10292.775   -2201.2934   -2200.5165 
         5.8    308.79182    133.53898    10289.121   -2202.1258   -2200.5149 
         5.9    302.59982     607.0115    10282.655   -2200.3029   -2200.5103 
           6    257.96191   -1746.5428    10305.476   -2196.9276   -2200.5049 
         6.1    329.33441    808.00531    10281.139   -2201.7762   -2200.5093 
         6.2    288.63736   -462.00586    10293.408    -2199.728    -2200.506 
         6.3    256.94209   -735.48781    10295.479   -2198.3485   -2200.5028 
         6.4    274.72264    1024.7506    10276.387   -2201.2068   -2200.5046 
         6.5    272.35663   -1074.7047    10299.719   -2200.8134   -2200.5032 
         6.6    286.69123    559.04215    10282.093   -2200.2598   -2200.5032 
         6.7    322.32749    133.82458    10289.463   -2201.7265   -2200.5055 
         6.8    309.25534    -410.3131    10297.242   -2200.3183   -2200.5028 
         6.9    288.31339    1194.8546    10276.896   -2199.0284    -2200.504 
           7    313.36762   -1380.5525    10303.815   -2201.3649   -2200.5091 
         7.1    277.02772    803.02251    10280.033   -2200.2885    -2200.511 
         7.2    260.80515    48.708619    10288.978   -2198.9719   -2200.5134 
         7.3    324.79184   -1168.8559     10301.79   -2201.5736   -2200.5231 
         7.4    316.90478    1870.8062    10271.948   -2200.4735   -2200.5285 
         7.5    304.54411   -1862.1068    10307.827   -2200.1553   -2200.5348 
         7.6    294.45069    581.93994    10283.797   -2200.0645   -2200.5433 
         7.7    269.31136    819.84445     10278.58   -2199.3359   -2200.5508 
         7.8    281.81774   -2868.3336    10316.667   -2201.3199   -2200.5611 
         7.9    265.20751    2752.7056    10257.546   -2200.3374   -2200.5699 
           8    278.72091   -2144.3295    10309.229   -2199.3514   -2200.5779 
         8.1     337.3662   -451.27695    10295.592   -2202.3902   -2200.5881 
         8.2     344.3914    3314.6951    10257.574    -2202.647   -2200.5938 
         8.3    302.85549   -3564.8113     10329.95   -2200.2996   -2200.5961 
         8.4    296.37992    3881.7671     10254.19   -2200.8439   -2200.6015 
         8.5    276.62662   -563.24388    10294.772    -2200.414   -2200.6074 
         8.6    293.71502   -2353.2398    10311.038   -2200.7337   -2200.6142 
         8.7    336.51719    4159.7741    10248.613   -2201.6818   -2200.6168 
         8.8    290.46343    -4168.078    10333.156   -2198.7451   -2200.6161 
         8.9    284.01546    2050.8818    10267.023   -2199.2917    -2200.619 
           9     283.1702    45.439707    10286.977   -2199.8724   -2200.6204 
         9.1    267.81994   -3115.5316    10319.128   -2199.3824   -2200.6203 
         9.2    287.54944    3797.3626    10248.367   -2200.5149   -2200.6241 
         9.3    322.02614   -3209.4846    10324.345   -2201.4014   -2200.6222 
         9.4    343.98062    2036.9658    10272.735   -2201.9705   -2200.6213 
         9.5    323.71029    1220.2688    10278.711   -2200.9184    -2200.619 
         9.6    284.26869   -3082.0576    10321.022   -2199.7433   -2200.6146 
         9.7    291.39687    4010.6007    10247.964   -2200.9985   -2200.6152 
         9.8    298.45078   -2747.0229    10317.794   -2201.1342   -2200.6106 
         9.9    295.16167    1143.5547    10280.556   -2200.1715   -2200.6041 
          10    333.36695    1993.7798    10270.909   -2202.1888   -2200.6028 
        10.1    314.66669   -3155.7993    10321.781   -2200.5493   -2200.5965 
        10.2    287.20485    2869.1134    10259.015   -2198.4002   -2200.5873 
        10.3    316.88384   -2088.6839    10309.026   -2200.6628   -2200.5843 
        10.4    280.09794   -192.54765    10291.675   -2199.3829   -2200.5723 
        10.5    266.16638    1558.9126    10270.881   -2199.1784    -2200.566 
        10.6    299.07938   -2376.6652    10313.692   -2200.8041   -2200.5602 
        10.7    298.63967    1877.4243    10270.504   -2199.0087   -2200.5499 
        10.8    291.79207   -1146.2406    10300.939   -2198.1713   -2200.5405 
        10.9    324.29284   -648.85141    10295.907   -2201.0705   -2200.5374 
          11    290.31204    1576.2926    10274.497   -2199.6629   -2200.5273 
        11.1    306.37691   -1556.6223    10305.888   -2201.1551   -2200.5226 
        11.2    303.37906    1669.5761    10273.827   -2200.8461   -2200.5155 
        11.3    294.51141    49.079599    10290.654   -2199.7145   -2200.5088 
        11.4    334.26597   -876.34767    10301.063   -2199.8045   -2200.5042 
        11.5    324.05015    1778.6119    10274.211   -2199.5039    -2200.499 
        11.6    309.50338   -2054.9649    10309.255   -2200.3313   -2200.4988 
        11.7    301.51981    653.51801    10282.342   -2200.5902   -2200.4932 
        11.8    255.00728     233.4989    10284.294   -2198.1894   -2200.4874 
        11.9    273.25437   -2076.2061    10307.408   -2199.1934   -2200.4877 
          12    324.96457    1992.0224    10271.015   -2200.9407   -2200.4857 
        12.1    291.12193    -1190.628    10302.607   -2197.9545   -2200.4804 
        12.2    304.39214   -511.43118    10294.687   -2199.6928   -2200.4814 
        12.3    317.40891    1728.1368    10273.917   -2201.2416   -2200.4812 
        12.4    297.78428   -1815.8665    10307.256   -2200.3163   -2200.4818 
        12.5    307.02449    1410.9138    10276.613   -2200.9873   -2200.4804 
        12.6    307.24693    606.37089    10287.746   -2200.6633   -2200.4761 
        12.7    291.98813   -1075.0361    10301.288   -2198.8313   -2200.4778 
        12.8    326.20431    1311.3079    10278.285   -2200.2603   -2200.4812 
        12.9    296.09191   -928.66186    10300.669   -2199.3434   -2200.4791 
          13    289.16664    139.49243    10286.295   -2200.4648   -2200.4833 
        13.1    308.54796    530.23355    10284.577   -2201.5852   -2200.4859 
        13.2    305.61739   -590.49594    10296.261    -2200.732   -2200.4862 
        13.3    282.69798    628.72126    10283.931   -2198.2485   -2200.4849 
        13.4    303.43592   -892.66612    10298.256    -2199.228   -2200.4886 
        13.5    286.52033   -202.46529    10289.446   -2199.4725   -2200.4929 
        13.6    298.13837   -8.1072279    10286.896   -2201.5916   -2200.4989 
        13.7    321.22393   -393.32403    10293.886    -2202.696   -2200.5001 
        13.8    302.32124    1085.2132    10279.854   -2200.2105   -2200.4991 
        13.9    334.16164   -548.47329    10298.345   -2201.5094   -2200.5024 
          14    306.44146    603.91648    10285.364   -2199.9771   -2200.5034 
        14.1    305.22423    354.53911    10286.285   -2200.4275   -2200.5069 
        14.2    305.25713   -909.05184    10299.605   -2200.6211   -2200.5088 
        14.3    316.71499    1380.4357    10276.517   -2201.4513   -2200.5124 
        14.4    287.81382   -1121.5648    10299.196    -2199.506   -2200.5139 
        14.5    294.69768   -240.89993      10290.9   -2199.5011   -2200.5157 
        14.6    308.71821    827.84675    10281.906   -2199.6777    -2200.517 
        14.7    286.44992   -1668.1265    10306.886   -2198.4358   -2200.5198 
        14.8    319.11922    1478.4561    10274.344   -2201.9693   -2200.5265 
        14.9    293.47516   -350.39598    10294.416   -2200.9489   -2200.5271 
          15    298.35255   -121.36672    10290.716   -2200.9114   -2200.5314 
        15.1    316.39828    1301.3592    10276.196   -2201.2321   -2200.5363 
        15.2     289.1046   -1618.6101    10306.662    -2199.258   -2200.5357 
        15.3    281.10679    1215.7646    10276.438   -2198.7831   -2200.5391 
        15.4    287.72887   -509.99559    10293.452   -2199.6842    -2200.546 
        15.5    293.27289   -1014.8586    10299.598   -2200.5095   -2200.5506 
        15.6    307.07961    2437.5584    10264.488    -2202.201    -2200.557 
        15.7    295.88237   -2355.0904    10312.638    -2201.436   -2200.5603 
        15.8    300.10801    1456.6884    10275.372    -2200.112   -2200.5632 
        15.9    323.14823    380.26848    10285.616   -2200.8694   -2200.5692 
          16     298.7853    -2755.559     10316.73   -2199.5676   -2200.5727 
        16.1    290.82893    3071.8426    10256.544   -2199.9631   -2200.5768 
        16.2    276.98788   -2441.6694    10313.019   -2200.4831   -2200.5811 
        16.3    256.86084    0.1518547     10284.37   -2201.0383   -2200.5878 
        16.4    281.67383    1931.3845    10265.722    -2201.937   -2200.5921 
        16.5    285.43497   -3547.0148    10324.888   -2200.7373   -2200.5926 
        16.6    279.30088     3225.559    10256.945   -2199.0645   -2200.5932 
        16.7    330.57035   -968.30379    10302.481   -2201.2892   -2200.5989 
        16.8    319.71076   -857.61869    10300.159    -2200.561    -2200.601 
        16.9     320.6784    3145.9905    10259.426   -2201.5305   -2200.6052 
          17    272.92655   -3296.4113    10321.842   -2199.7043   -2200.6063 
        17.1    272.78522    1880.9225    10267.559   -2199.5559   -2200.6089 
        17.2    284.92945   -505.96595    10293.021   -2199.6608   -2200.6124 
        17.3    301.65547   -2195.5901      10310.7   -2200.3185    -2200.616 
        17.4     263.4065    3041.3292    10257.823   -2197.8412    -2200.615 
        17.5    318.95067   -3234.1378    10323.214   -2201.3615   -2200.6229 
        17.6    302.91024    2064.6425     10268.77   -2200.6353   -2200.6252 
        17.7    289.70935    387.74026    10285.481   -2200.7408   -2200.6284 
        17.8    314.16411   -2337.7858    10314.469   -2202.6493   -2200.6352 
        17.9    300.76202    4320.8389    10246.505   -2200.6944    -2200.639 
          18    315.03725   -3869.8052    10330.323   -2200.4225   -2200.6435 
        18.1    323.71861    2020.9818    10270.626   -2200.9981   -2200.6505 
        18.2    307.51054    1718.6929    10273.241   -2200.6966   -2200.6556 
        18.3    280.42284   -4588.5612    10336.414   -2200.2466   -2200.6616 
        18.4    276.39407    5883.2864    10226.788   -2201.4224   -2200.6677 
        18.5    283.67742   -4471.2892    10333.944   -2200.9789   -2200.6705 
        18.6    286.54028    469.74316    10282.453   -2199.7362   -2200.6713 
        18.7    314.77338    3410.5414    10255.564   -2200.9291   -2200.6721 
        18.8    294.77846   -5404.1721    10347.501   -2199.3056   -2200.6669 
        18.9    314.30893     5221.834    10236.968   -2200.6364   -2200.6648 
          19    291.71847   -2882.5661    10316.766   -2200.0794   -2200.6594 
        19.1    283.85094   -1079.3699    10299.313    -2200.336   -2200.6511 
        19.2    272.55291    3378.4967    10253.261   -2199.6651   -2200.6411 
        19.3    325.76905   -3984.1008    10332.322   -2201.5608   -2200.6312 
        19.4    315.36151     3314.052     10258.87   -2199.9861   -2200.6185 
        19.5    329.47493   -694.91674    10298.382   -2201.3768   -2200.6097 
        19.6    292.62601   -1050.3377    10301.657   -2200.3496    -2200.597 
        19.7    277.96471    2771.3126    10260.744   -2200.1193   -2200.5872 
        19.8    315.33797   -2545.7168    10316.028   -2202.1826   -2200.5816 
        19.9    313.74229    1574.4969    10273.834   -2201.3451   -2200.5734 
          20    282.50264    74.187392    10288.012    -2198.614   -2200.5638 
        20.1    305.27859   -2157.8411    10311.523   -2199.6907   -2200.5583 
        20.2    282.72881    2026.0681     10266.01    -2199.328   -2200.5547 
        20.3    271.50594   -2408.5258    10309.534   -2200.0925   -2200.5515 
        20.4    290.35716    387.80122    10284.738   -2200.9314   -2200.5461 
        20.5    302.22806    1255.1251    10278.568   -2200.2521   -2200.5402 
        20.6    304.67486   -1775.4194    10308.248   -2200.0909   -2200.5396 
        20.7     332.8263    1832.1403    10273.461   -2201.8983   -2200.5364 
        20.8     283.4622   -262.01214    10293.469   -2199.6176   -2200.5324 
        20.9    285.54761   -757.50872    10295.315   -2201.4911   -2200.5331 
          21    286.66897    1537.7571    10273.209   -2201.7122    -2200.532 
        21.1    279.01594   -1231.0156    10302.161   -2199.8511   -2200.5278 
        21.2    288.28519    540.18852    10282.899   -2199.9888   -2200.5285 
        21.3    303.41299    113.23479     10289.05   -2200.1693   -2200.5284 
        21.4    307.81058    -635.2357    10297.274   -2199.9268   -2200.5273 
        21.5    295.91216     622.5276     10283.85   -2199.3416   -2200.5272 
        21.6    295.27187   -806.28589    10296.653   -2200.8385     -2200.53 
        21.7      286.655    222.01919    10285.075   -2201.0873   -2200.5331 
        21.8    288.04399   -221.71731    10289.638   -2200.4627   -2200.5343 
        21.9    298.36148   -541.68657    10295.253   -2200.3071    -2200.536 
          22    280.62685    762.02419     10281.68   -2198.9248   -2200.5372 
        22.1    311.11436   -1079.4521    10301.531   -2200.7551   -2200.5443 
        22.2     302.7519    669.95031    10281.639   -2200.5345    -2200.551 
        22.3    311.47871   -121.52457    10290.163   -2202.1054   -2200.5573 
        22.4    292.50109   -294.32401    10293.574   -2201.5323   -2200.5621 
        22.5    318.53131    1732.0816    10274.179   -2202.1227   -2200.5716 
        22.6    305.94305   -1346.5055      10304.1   -2200.1909   -2200.5794 
        22.7     314.4648    655.84288    10284.699   -2200.5389   -2200.5895 
        22.8    279.85223    388.23398    10284.444   -2198.8649   -2200.5987 
        22.9    273.70417   -2355.3778    10312.232    -2199.375   -2200.6111 
          23    277.18507    2720.8202    10260.147   -2201.4394   -2200.6229 
        23.1    269.36305    -2137.896    10309.726   -2200.8152   -2200.6317 
        23.2    287.83263    405.10946    10285.031   -2200.8188   -2200.6406 
        23.3    297.50371    2022.1716    10269.352   -2200.5022   -2200.6477 
        23.4    310.08283   -3629.4071    10328.025   -2200.3678   -2200.6537 
        23.5    308.48596    3824.2515    10252.598   -2199.8815   -2200.6564 
        23.6    301.09648   -2012.0702    10311.379   -2200.1391   -2200.6606 
        23.7    321.65365    -537.1209    10295.152   -2203.2038   -2200.6678 
        23.8    297.50649    3422.1861    10253.702   -2201.5974   -2200.6685 
        23.9    294.91224   -4705.2164    10337.838    -2200.286   -2200.6657 
          24    302.53005    3880.8539    10251.798   -2200.1935   -2200.6652 
        24.1    301.22667   -1140.2243    10302.608   -2200.0673   -2200.6639 
        24.2    304.15567   -2012.6902     10309.89   -2200.5296   -2200.6636 
        24.3    314.70082    4297.4028    10248.416   -2201.7581   -2200.6609 
        24.4    268.63958   -3942.0966    10328.247   -2200.1507    -2200.658 
        24.5    291.16679    1952.5152    10268.539   -2201.2421   -2200.6562 
        24.6     312.5034    603.69838    10283.286   -2201.0237   -2200.6521 
        24.7    265.29202   -2994.2912    10320.941   -2197.4651   -2200.6426 
        24.8     298.5484    3326.0821     10256.14   -2199.7894   -2200.6423 
        24.9    296.54689   -2280.2654    10314.007   -2200.4112   -2200.6386 
          25    290.60227    719.65508    10281.967   -2201.5315   -2200.6357 
        25.1    303.51837    1559.6016    10273.146   -2202.9702   -2200.6343 
        25.2    290.74126   -2125.3648    10311.785   -2200.2311   -2200.6268 
        25.3    293.96571    2162.5728     10267.64   -2199.7191   -2200.6225 
        25.4    315.25513   -1365.1774      10304.4   -2200.7892   -2200.6207 
        25.5    294.67115    81.117271    10289.176   -2199.5973   -2200.6156 
        25.6    290.33961    1082.6488    10278.858   -2200.0304   -2200.6135 
        25.7    306.47579   -1869.4941    10307.409   -2201.9339   -2200.6152 
        25.8    274.57769    1537.7398    10270.271   -2200.3739   -2200.6121 
        25.9    302.83947   -1363.9323    10303.524   -2200.6708   -2200.6092 
          26    303.43184   0.33056245    10290.302   -2199.5338   -2200.6063 
        26.1    308.47895    1065.5145    10279.656   -2199.9992   -2200.6067 
        26.2    299.58835   -1699.9241    10307.976    -2200.438   -2200.6048 
        26.3     296.5206    2057.7772    10269.605   -2201.0555   -2200.6047 
        26.4    283.11018   -894.39879    10297.492   -2200.4426   -2200.6049 
        26.5    292.70405   -740.36831    10297.577   -2199.6092   -2200.6028 
        26.6    303.56574    2036.6626    10271.154   -2199.2366   -2200.6013 
        26.7    309.58476   -2539.6268     10316.23   -2199.8819   -2200.6034 
        26.8    298.80866    1740.9775    10271.923   -2200.4896    -2200.603 
        26.9    282.69464   -123.90021    10290.743   -2200.2319    -2200.603 
          27    285.43778   -1529.9087    10304.267   -2200.0512   -2200.6038 
        27.1    305.40925    2308.6814    10265.703    -2200.386    -2200.604 
        27.2    316.45008    -2425.277    10315.034   -2200.5031   -2200.6052 
        27.3    304.90336    1011.2727    10279.389   -2199.9352   -2200.6053 
        27.4    292.54666    691.02964    10283.483   -2199.5534   -2200.6055 
        27.5    323.08093   -2077.8185    10311.024   -2202.1869   -2200.6118 
        27.6    315.83999    2746.4636    10260.354   -2202.2721   -2200.6146 
        27.7    287.71934   -2120.8575     10312.33   -2199.9382   -2200.6124 
        27.8    306.54076    697.58307    10284.436    -2199.533   -2200.6153 
        27.9    317.02553    1545.0545    10277.432   -2199.7725   -2200.6185 
          28    331.07889   -2746.3517    10318.345   -2201.6976   -2200.6264 
        28.1    307.97696    3235.3927    10258.579   -2200.7472   -2200.6275 
        28.2    305.32262   -1479.0191    10305.639   -2200.8427   -2200.6317 
        28.3     282.8848   -727.91815     10297.49   -2199.2303   -2200.6335 
        28.4    298.54003    2558.8342    10262.588    -2199.822   -2200.6398 
        28.5    289.68933   -4091.1507    10331.693   -2198.0948   -2200.6411 
        28.6    302.30943    2678.0856     10263.21   -2198.5327   -2200.6444 
        28.7      299.611   -375.90893    10295.071   -2199.9704   -2200.6477 
        28.8    300.54995   -1995.3786    10310.621   -2200.9312   -2200.6525 
        28.9    318.70904    4003.8854    10249.552    -2201.921   -2200.6566 
          29     307.0835   -3628.5436    10328.017   -2200.5056   -2200.6561 
        29.1    304.35298     2024.118    10271.415    -2199.118   -2200.6548 
        29.2      343.083    914.58382    10284.259   -2200.3091   -2200.6581 
        29.3    335.61759   -2779.9384    10321.607    -2199.991    -2200.658 
        29.4     303.4586    3739.2806    10250.834   -2200.0752   -2200.6591 
        29.5    301.85776   -3142.7722     10321.95    -2200.734   -2200.6601 
        29.6    292.61827    909.73235    10277.466   -2200.6846   -2200.6613 
        29.7    285.45624    925.12695    10279.094   -2199.6845   -2200.6583 
        29.8    322.95194   -2911.4347    10320.868    -2200.639   -2200.6572 
        29.9    298.60013    3419.0819    10257.017   -2198.4384   -2200.6527 
          30    289.61858   -2551.0698    10316.326   -2199.1522   -2200.6529 
        30.1    297.38325    537.05704    10283.244   -2200.7954   -2200.6524 
        30.2    297.24953    1422.3624     10273.63   -2200.6702   -2200.6505 
        30.3    291.47008   -3237.0742    10322.883   -2199.5496   -2200.6451 
        30.4    305.38849    3152.0084    10258.923   -2199.5752    -2200.641 
        30.5    295.56675   -1812.1735    10310.261   -2198.6877    -2200.635 
        30.6     304.9524   -142.43518    10292.313   -2200.8324   -2200.6332 
        30.7     303.3815    2312.7972    10265.636   -2201.8155   -2200.6296 
        30.8    300.47021   -2588.5857    10317.728   -2201.1219   -2200.6218 
        30.9    311.71706     2328.833    10267.197   -2200.6342   -2200.6156 
          31     308.7263    -784.4257    10298.108   -2200.0236   -2200.6084 
        31.1    292.86584   -1037.1373    10301.259   -2199.2944    -2200.601 
        31.2    295.29499     1726.381    10270.251   -2199.7902   -2200.5953 
        31.3    287.40096    -2270.143    10312.192   -2199.5407   -2200.5878 
        31.4    306.18406    1024.1324     10277.86   -2201.1532   -2200.5834 
        31.5    301.04881   -138.57366    10290.073   -2201.1973   -2200.5768 
        31.6    284.76097   -1196.8007    10300.941   -2200.2472   -2200.5678 
        31.7    282.10699    1605.0381    10273.476   -2199.1413   -2200.5594 
        31.8    320.21024   -1132.8096    10304.028   -2200.5894   -2200.5557 
        31.9    328.40409    840.92752    10284.661   -2200.9083   -2200.5506 
          32    309.88187    701.27324    10283.176   -2201.3397   -2200.5469 
        32.1    273.86668   -1227.3522    10301.947   -2200.0424    -2200.539 
        32.2    281.03847    1510.3415    10273.995   -2199.9145   -2200.5357 
        32.3    301.18143   -1080.3025    10299.542   -2200.3155   -2200.5336 
        32.4    318.91355     41.24461    10291.051   -2200.8601   -2200.5287 
        32.5    315.70882    1005.2545    10280.421   -2200.8198   -2200.5258 
        32.6    294.13568   -1334.5455    10303.514   -2199.6971   -2200.5209 
        32.7    300.47009    824.68581    10280.836   -2200.3177   -2200.5197 
        32.8    307.80152   -338.42441    10292.001   -2200.8699   -2200.5188 
        32.9    298.83184   -819.80275     10297.34   -2200.2391   -2200.5156 
          33    307.39349    1083.1788    10279.387   -2200.7778   -2200.5142 
        33.1      307.826   -637.07758    10297.641   -2200.6973   -2200.5122 
        33.2    296.05099    160.36196    10287.857   -2199.9147   -2200.5103 
        33.3     299.9429    127.45245    10288.129   -2200.0587   -2200.5108 
        33.4    299.00076   -575.59217    10295.381   -2200.2673   -2200.5107 
        33.5      305.468    659.69518    10284.252   -2201.1376   -2200.5112 
        33.6    320.00329   -77.932515    10290.716   -2202.5288   -2200.5146 
        33.7    305.30687    356.96285     10287.08    -2201.305   -2200.5139 
        33.8    304.91074    124.44909    10289.701   -2199.7924   -2200.5149 
        33.9    304.47007   -243.22639     10293.78   -2199.1794   -2200.5194 
          34     299.0225    186.90706    10287.722   -2199.6786    -2200.526 
        34.1     286.8797   -663.36346    10295.152   -2200.5488   -2200.5352 
        34.2    281.76021    345.18778    10284.522   -2200.2619   -2200.5438 
        34.3    273.96557   -388.38431    10291.001   -2199.1061   -2200.5529 
        34.4     302.2586   -657.28323    10297.161   -2199.8044   -2200.5646 
        34.5    304.81323    1370.8691    10276.977   -2199.5946   -2200.5764 
        34.6    314.13021   -1506.8122    10305.055   -2201.1042   -2200.5913 
        34.7    289.30333    1103.1212     10278.52    -2201.292   -2200.6023 
        34.8    298.71013    460.20284    10283.816   -2201.6485   -2200.6146 
        34.9    296.56099   -1809.1016    10307.174   -2200.4712   -2200.6227 
          35     314.2714    2495.8076    10264.893   -2200.9214   -2200.6322 
        35.1    295.82734   -1912.3537    10309.981   -2199.5545   -2200.6381 
        35.2    286.09454    217.15615     10286.49   -2199.2891   -2200.6457 
        35.3    284.99905     1344.184    10273.444   -2200.9525   -2200.6544 
        35.4    291.23733   -3187.5298    10318.496   -2202.0549   -2200.6636 
        35.5    291.54772    3141.9029    10256.782   -2200.7606   -2200.6658 
        35.6    278.88829   -1628.7822     10307.84   -2198.9324   -2200.6664 
        35.7    314.93097   -453.27176    10295.094    -2200.924   -2200.6744 
        35.8    314.43419    2746.3203    10261.963   -2200.7315   -2200.6788 
        35.9    287.23136   -4157.3285    10330.343   -2199.4963   -2200.6812 
          36    284.76157    3247.0749    10255.971   -2200.5612   -2200.6839 
        36.1    274.68515   -983.53545    10297.642   -2200.3062   -2200.6854 
        36.2    301.71181   -2024.3624     10309.42   -2200.4993   -2200.6877 
        36.3    323.84111    4173.2652    10249.295   -2200.9751   -2200.6891 
        36.4    290.69755   -3976.2772    10332.448   -2199.0405   -2200.6849 
        36.5    286.65363     2361.232    10265.364   -2199.5924   -2200.6857 
        36.6    306.63892    451.74263    10284.568   -2202.0409   -2200.6878 
        36.7    296.08416   -2836.5665    10316.863   -2201.8702   -2200.6867 
        36.8    302.68382    3740.6425    10250.549   -2201.4385   -2200.6839 
        36.9     304.8122   -3016.8309    10321.108   -2199.9564   -2200.6778 
          37    302.59336    719.80907    10282.622   -2199.4616   -2200.6745 
        37.1    313.66499    1220.2493    10277.496    -2200.762   -2200.6727 
        37.2    277.61517   -2575.9468    10315.754    -2199.806   -2200.6662 
        37.3    296.91808    2876.6032    10260.278   -2201.4009    -2200.664 
        37.4    315.04002   -1335.3088     10304.98   -2201.6861    -2200.659 
        37.5    308.63647    260.01456    10287.464   -2200.7559    -2200.654 
        37.6    298.79902    1588.6898    10275.963   -2200.0406   -2200.6457 
        37.7    298.18648   -1866.6359    10309.727   -2200.1752   -2200.6427 
        37.8    285.60129    1674.8528    10270.493   -2199.5965   -2200.6374 
        37.9    292.27714   -1258.7552    10301.686   -2200.2268   -2200.6326 
          38    295.99892    15.061309    10289.748   -2200.3277   -2200.6266 
        38.1    302.20212     1052.759    10277.783   -2200.0918    -2200.623 
        38.2    320.14755   -1945.2545    10310.657   -2200.2482   -2200.6169 
        38.3    317.07168     1844.139    10272.394   -2200.0548   -2200.6095 
        38.4    288.79394   -915.36107    10298.273   -2200.1112    -2200.605 
        38.5    297.14824   -418.49398    10293.078   -2201.2178   -2200.6008 
        38.6    303.62886    1727.5284    10272.415   -2201.0769    -2200.595 
        38.7    310.22001   -1782.4612    10308.839   -2200.4226   -2200.5876 
        38.8    304.58862    1266.4834    10277.939   -2199.6162   -2200.5798 
        38.9    318.34361   -83.534909    10290.544   -2200.8522   -2200.5769 
          39     303.0145   -1252.7038    10302.081   -2200.2303   -2200.5705 
        39.1    288.99218    1542.9731    10273.066   -2199.7201   -2200.5625 
        39.2    299.18905   -1223.1473    10302.817   -2200.7951   -2200.5573 
        39.3    296.28791     574.6903    10282.776   -2200.9515   -2200.5517 
        39.4    291.03624    468.34798    10285.298   -2200.0376   -2200.5432 
        39.5    294.47648   -1138.0038    10300.722   -2199.0121   -2200.5359 
        39.6    304.07739    851.82956    10281.799   -2199.0634   -2200.5285 
        39.7    297.29278   -934.47534    10297.696   -2199.9002   -2200.5242 
        39.8    284.35587   -137.94251    10289.075   -2200.2476   -2200.5176 
        39.9    282.73333    575.42253    10283.122   -2199.9484    -2200.509 
          40     297.0882   -914.53116    10298.676    -2200.058    -2200.503 
        40.1    314.67347       703.88    10282.615   -2200.4667    -2200.497 
        40.2    319.90507   -170.38334    10292.602   -2200.6971   -2200.4897 
        40.3    305.42392     -168.991    10291.891   -2200.9036   -2200.4826 
        40.4    284.75196    601.30509    10281.995   -2200.6062   -2200.4751 
        40.5    305.89536   -471.32558     10293.72    -2201.713   -2200.4689 
        40.6      311.862    197.03896    10287.675    -2200.666   -2200.4609 
        40.7    305.06385    139.44167    10288.577   -2199.5826   -2200.4514 
        40.8    296.74336   -588.47009     10295.35   -2199.4748   -2200.4441 
        40.9    291.22764    178.48464    10287.222   -2199.6912   -2200.4352 
          41    289.83762    -287.4673    10291.787   -2199.7367   -2200.4269 
        41.1    280.74665   -306.39983    10291.064   -2199.2205   -2200.4193 
        41.2     309.6621    197.73413    10289.044   -2200.7563    -2200.411 
        41.3    303.90964     160.3547    10288.473   -2200.1666   -2200.4015 
        41.4    305.78097   -318.93835    10294.211   -2199.6824    -2200.391 
        41.5    315.71438    363.70872    10288.106    -2200.434   -2200.3829 
        41.6    301.96823    175.68382    10288.833   -2200.6991   -2200.3752 
        41.7    299.16242   -349.64547    10291.271   -2201.5294   -2200.3687 
        41.8     304.2324    696.60841    10284.436    -2201.478   -2200.3576 
        41.9    318.61262    60.565631    10290.659    -2200.428   -2200.3499 
          42     306.5684   -159.84687    10293.425   -2199.2431   -2200.3412 
        42.1     313.1704    653.12395    10284.737   -2200.5411    -2200.335 
        42.2    292.77804   -544.68133    10293.537   -2200.3721   -2200.3305 
        42.3    301.81437   -151.23901    10288.829   -2201.2097    -2200.327 
        42.4     302.5929    270.61613    10286.171    -2200.518   -2200.3212 
        42.5    316.55449   -558.69034    10296.844   -2199.4583   -2200.3159 
        42.6     313.3348    349.56282    10288.279   -2199.4979   -2200.3129 
        42.7    296.36143    101.63212    10288.235   -2199.5088    -2200.311 
        42.8    304.77287   -579.03642    10295.517   -2200.7236   -2200.3115 
        42.9    296.56439    676.44463    10282.417     -2200.45   -2200.3106 
          43    306.04897   -255.75265    10292.552   -2200.7882   -2200.3099 
        43.1    324.16244    294.35229    10289.281   -2200.3702   -2200.3096 
        43.2    323.11353    537.14209    10287.707   -2199.3657    -2200.308 
        43.3    296.74588   -422.62507    10294.283   -2199.0614   -2200.3101 
        43.4    298.05016    374.03558    10286.085   -2200.0704   -2200.3121 
        43.5     304.6942    58.452446     10289.08   -2200.9287   -2200.3142 
        43.6    314.78047   -227.56297    10291.289   -2201.5867   -2200.3176 
        43.7     289.6317    465.92764    10285.042   -2199.0464   -2200.3148 
        43.8    309.38669   -473.94286    10295.639   -2198.8996   -2200.3172 
        43.9    310.08949    36.995264    10288.747   -2199.4475     -2200.32 
          44    295.79688   -294.08846    10289.625   -2200.1204   -2200.3248 
        44.1    300.21794   -386.30336    10292.189   -2200.7115    -2200.327 
        44.2    301.19853    567.27763    10283.865   -2200.5749   -2200.3296 
        44.3    287.40614   -468.15954    10293.078     -2199.06   -2200.3306 
        44.4    330.01521    86.214746    10290.727   -2200.4544   -2200.3353 
        44.5    318.47413    468.98987    10285.886   -2199.4374   -2200.3395 
        44.6    293.51387   -798.64841    10296.678   -2199.9377   -2200.3446 
        44.7    302.51356    667.88354    10281.308   -2201.2305   -2200.3507 
        44.8    303.80434   -107.00011    10290.355   -2200.9518   -2200.3548 
        44.9    286.42963   -399.17405    10291.648   -2198.9465   -2200.3595 
          45    295.55527    584.65328     10284.81   -2198.3335   -2200.3628 
        45.1    307.46772   -691.66374    10294.873   -2199.6366   -2200.3734 
        45.2    289.24357   -175.87763    10288.019   -2200.7015   -2200.3821 
        45.3    287.47917    213.98101    10284.739   -2200.6195   -2200.3881 
        45.4    284.83346   -708.03569    10295.403   -2199.3977   -2200.3937 
        45.5    302.22576    419.10841    10285.927   -2199.5602    -2200.401 
        45.6    310.64308    74.261263    10289.783   -2200.0643   -2200.4091 
        45.7    307.50342   -34.103524    10289.469   -2201.4566   -2200.4195 
        45.8    290.98405     265.0431    10284.806   -2201.5317   -2200.4276 
        45.9    287.03128    -259.0467     10289.91   -2200.5549   -2200.4344 
          46      304.297    35.244994    10287.762   -2200.7202   -2200.4418 
        46.1    310.56446   -52.839658    10290.132   -2200.4757   -2200.4488 
        46.2     316.9276    139.25983    10288.175   -2200.7922    -2200.456 
        46.3    277.79634   -11.576332    10287.438   -2199.4837   -2200.4608 
        46.4    290.88432   -363.97878    10291.173   -2201.8995   -2200.4708 
        46.5    291.97198     628.2829    10279.752   -2201.3554   -2200.4775 
        46.6    292.97272   -914.56977    10297.668   -2200.2655   -2200.4805 
        46.7     306.3479    486.01784    10284.302   -2200.5362   -2200.4868 
        46.8    314.86392    515.08273    10285.514   -2200.6567   -2200.4918 
        46.9    298.06501   -964.78696     10298.67   -2199.7441   -2200.4969 
          47    311.68178    1333.4188    10275.118   -2201.9971   -2200.5052 
        47.1    270.83246   -826.77861    10294.798   -2200.1913   -2200.5084 
        47.2     286.6793   -409.42454    10290.771   -2200.2287   -2200.5132 
        47.3      310.234    1121.2483    10277.791   -2200.4859   -2200.5184 
        47.4    320.14952   -1529.2569    10304.937   -2201.0546   -2200.5239 
        47.5    311.77643    1299.8614    10276.014   -2200.8977   -2200.5293 
        47.6    301.14599   -123.53769    10290.446   -2201.0687   -2200.5339 
        47.7    276.50134   -710.50292    10295.721   -2200.8512   -2200.5377 
        47.8    284.33067    1696.8785    10269.837   -2201.4583   -2200.5447 
        47.9    298.96983     -1831.02    10306.548   -2200.2326   -2200.5488 
          48     310.1425    747.45321    10281.138   -2200.3486   -2200.5532 
        48.1    302.20525    315.02609    10284.856   -2200.0231   -2200.5583 
        48.2    275.71623   -1822.2064    10306.638   -2198.9583   -2200.5603 
        48.3     288.0556    2426.4472     10263.13   -2200.7936   -2200.5668 
        48.4    298.82658   -2032.9679    10307.971   -2201.6078   -2200.5743 
        48.5     300.9151    604.66763    10282.531   -2199.8901   -2200.5759 
        48.6    323.15214    1494.8209    10277.068   -2200.4595   -2200.5793 
        48.7     311.1186   -2306.4126    10313.611   -2200.3903   -2200.5842 
        48.8    298.33828    2602.4878    10262.075    -2200.623   -2200.5892 
        48.9    292.62196   -1417.0473    10301.741   -2200.8444   -2200.5938 
          49    284.74804   -726.54588    10294.788   -2199.7181   -2200.5961 
        49.1    305.20791    1978.6572    10269.374   -2198.5961   -2200.5977 
        49.2    312.40363   -3013.5631    10320.106   -2199.5305   -2200.6024 
        49.3    283.58658    2078.5963    10266.494   -2199.1975   -2200.6056 
        49.4    303.49893   -722.61091    10295.139    -2201.195   -2200.6107 
        49.5    289.46532   -1457.1168    10301.303   -2200.2685   -2200.6135 
        49.6    312.57508    2608.4033    10263.295   -2200.3883   -2200.6154 
        49.7    320.65564   -2677.4091    10319.511   -2199.5001   -2200.6172 
        49.8    303.12068    1868.6592    10271.085   -2198.9441   -2200.6196 
        49.9    299.10345    40.972186    10289.955   -2199.4717   -2200.6223 
          50    318.13365   -1714.6762    10307.688   -2201.3631   -2200.6286 
Loop time of 60.6677 on 1 procs for 50000 steps with 512 atoms

Performance: 71.208 ns/day, 0.337 hours/ns, 824.162 timesteps/s
99.8% CPU use with 1 MPI tasks x no OpenMP threads

MPI task timing breakdown:
Section |  min time  |  avg time  |  max time  |%varavg| %total
---------------------------------------------------------------
Pair    | 57.808     | 57.808     | 57.808     |   0.0 | 95.29
Neigh   | 0          | 0          | 0          |   0.0 |  0.00
Comm    | 0.41928    | 0.41928    | 0.41928    |   0.0 |  0.69
Output  | 1.037      | 1.037      | 1.037      |   0.0 |  1.71
Modify  | 1.1947     | 1.1947     | 1.1947     |   0.0 |  1.97
Other   |            | 0.2084     |            |       |  0.34

Nlocal:        512.000 ave         512 max         512 min
Histogram: 1 0 0 0 0 0 0 0 0 0
Nghost:        1450.00 ave        1450 max        1450 min
Histogram: 1 0 0 0 0 0 0 0 0 0
Neighs:         0.00000 ave           0 max           0 min
Histogram: 1 0 0 0 0 0 0 0 0 0
FullNghs:      17408.0 ave       17408 max       17408 min
Histogram: 1 0 0 0 0 0 0 0 0 0

Total # of neighbors = 17408
Ave neighs/atom = 34.000000
Neighbor list builds = 0
Dangerous builds = 0
undump          1
unfix           4

write_data S300K.dat
System init for write_data ...
write_restart S300K.rest
System init for write_restart ...
Total wall time: 0:01:00
