ITEM: TIMESTEP
0
ITEM: NUMBER OF ATOMS
54
ITEM: BOX BOUNDS xy xz yz pp pp pp
0.0000000000000000e+00 9.2520000000000007e+00 0.0000000000000000e+00
0.0000000000000000e+00 9.2520000000000007e+00 0.0000000000000000e+00
0.0000000000000000e+00 9.2520000000000007e+00 0.0000000000000000e+00
ITEM: ATOMS id type x y z
1 1 0 0 0
2 1 1.542 1.542 1.542
3 1 0 0 3.084
4 1 1.542 1.542 4.626
5 1 0 0 6.168
6 1 1.542 1.542 7.71
7 1 0 3.084 0
8 1 1.542 4.626 1.542
9 1 0 3.084 3.084
10 1 1.542 4.626 4.626
11 1 0 3.084 6.168
12 1 1.542 4.626 7.71
13 1 0 6.168 0
14 1 1.542 7.71 1.542
15 1 0 6.168 3.084
16 1 1.542 7.71 4.626
17 1 0 6.168 6.168
18 1 1.542 7.71 7.71
19 1 3.084 0 0
20 1 4.626 1.542 1.542
21 1 3.084 0 3.084
22 1 4.626 1.542 4.626
23 1 3.084 0 6.168
24 1 4.626 1.542 7.71
25 1 3.084 3.084 0
26 1 4.626 4.626 1.542
27 1 3.084 3.084 3.084
28 1 4.626 4.626 4.626
29 1 3.084 3.084 6.168
30 1 4.626 4.626 7.71
31 1 3.084 6.168 0
32 1 4.626 7.71 1.542
33 1 3.084 6.168 3.084
34 1 4.626 7.71 4.626
35 1 3.084 6.168 6.168
36 1 4.626 7.71 7.71
37 1 6.168 0 0
38 1 7.71 1.542 1.542
39 1 6.168 0 3.084
40 1 7.71 1.542 4.626
41 1 6.168 0 6.168
42 1 7.71 1.542 7.71
43 1 6.168 3.084 0
44 1 7.71 4.626 1.542
45 1 6.168 3.084 3.084
46 1 7.71 4.626 4.626
47 1 6.168 3.084 6.168
48 1 7.71 4.626 7.71
49 1 6.168 6.168 0
50 1 7.71 7.71 1.542
51 1 6.168 6.168 3.084
52 1 7.71 7.71 4.626
53 1 6.168 6.168 6.168
54 1 7.71 7.71 7.71
ITEM: TIMESTEP
1
ITEM: NUMBER OF ATOMS
54
ITEM: BOX BOUNDS xy xz yz pp pp pp
0.0000000000000000e+00 9.2520000000000007e+00 0.0000000000000000e+00
0.0000000000000000e+00 9.2520000000000007e+00 0.0000000000000000e+00
0.0000000000000000e+00 9.2520000000000007e+00 0.0000000000000000e+00
ITEM: ATOMS id type x y z
1 1 -3.33734e-16 -3.33734e-16 -3.61546e-16
2 1 1.542 1.542 1.542
3 1 -1.0012e-15 -9.45581e-16 3.084
4 1 1.542 1.542 4.626
5 1 -1.0012e-15 -9.45581e-16 6.168
6 1 1.542 1.542 7.71
7 1 -1.11245e-15 3.084 -7.73064e-16
8 1 1.542 4.626 1.542
9 1 -1.0012e-15 3.084 3.084
10 1 1.542 4.626 4.626
11 1 -6.11846e-16 3.084 6.168
12 1 1.542 4.626 7.71
13 1 -1.33494e-15 6.168 -8.66493e-16
14 1 1.542 7.71 1.542
15 1 -1.44618e-15 6.168 3.084
16 1 1.542 7.71 4.626
17 1 1.11245e-16 6.168 6.168
18 1 1.542 7.71 7.71
19 1 3.084 -7.63504e-16 -7.8621e-16
20 1 4.626 1.542 1.542
21 1 3.084 -1.24553e-15 3.084
22 1 4.626 1.542 4.626
23 1 3.084 -8.37704e-16 6.168
24 1 4.626 1.542 7.71
25 1 3.084 3.084 -1.33494e-15
26 1 4.626 4.626 1.542
27 1 3.084 3.084 3.084
28 1 4.626 4.626 4.626
29 1 3.084 3.084 6.168
30 1 4.626 4.626 7.71
31 1 3.084 6.168 -1.64086e-15
32 1 4.626 7.71 1.542
33 1 3.084 6.168 3.084
34 1 4.626 7.71 4.626
35 1 3.084 6.168 6.168
36 1 4.626 7.71 7.71
37 1 6.168 -7.59485e-16 -8.15433e-16
38 1 7.71 1.542 1.542
39 1 6.168 -1.62011e-15 3.084
40 1 7.71 1.542 4.626
41 1 6.168 -4.21514e-17 6.168
42 1 7.71 1.542 7.71
43 1 6.168 3.084 -1.64086e-15
44 1 7.71 4.626 1.542
45 1 6.168 3.084 3.084
46 1 7.71 4.626 4.626
47 1 6.168 3.084 6.168
48 1 7.71 4.626 7.71
49 1 6.168 6.168 -8.34336e-17
50 1 7.71 7.71 1.542
51 1 6.168 6.168 3.084
52 1 7.71 7.71 4.626
53 1 6.168 6.168 6.168
54 1 7.71 7.71 7.71
