LAMMPS data file via write_data, version 29 Sep 2021, timestep = 1

54 atoms
1 atom types

0 9.252 xlo xhi
0 9.252 ylo yhi
0 9.252 zlo zhi
0 0 0 xy xz yz

Masses

1 28.0855

Atoms # atomic

1 1 0 0 0 0 0 0
2 1 1.542 1.542 1.542 0 0 0
3 1 9.251999999999999 9.251999999999999 3.084 -1 -1 0
4 1 1.542 1.542 4.626 0 0 0
5 1 9.251999999999999 9.251999999999999 6.168 -1 -1 0
6 1 1.542 1.542 7.710000000000002 0 0 0
7 1 9.251999999999999 3.084 9.251999999999999 -1 0 -1
8 1 1.542 4.626 1.542 0 0 0
9 1 9.251999999999999 3.0840000000000005 3.0840000000000005 -1 0 0
10 1 1.542 4.6259999999999994 4.6259999999999994 0 0 0
11 1 9.251999999999999 3.084000000000001 6.168 -1 0 0
12 1 1.542 4.626 7.710000000000002 0 0 0
13 1 9.251999999999999 6.168 9.251999999999999 -1 0 -1
14 1 1.5420000000000003 7.710000000000002 1.542 0 0 0
15 1 9.251999999999999 6.168 3.084 -1 0 0
16 1 1.5420000000000003 7.710000000000001 4.6259999999999994 0 0 0
17 1 1.1124480333062787e-16 6.168 6.168 0 0 0
18 1 1.542 7.71 7.710000000000002 0 0 0
19 1 3.0839999999999996 9.251999999999999 9.251999999999999 0 -1 -1
20 1 4.626 1.542 1.542 0 0 0
21 1 3.0840000000000005 9.251999999999999 3.0840000000000005 0 -1 0
22 1 4.6259999999999994 1.542 4.6259999999999994 0 0 0
23 1 3.084000000000001 9.251999999999999 6.168 0 -1 0
24 1 4.626 1.542 7.710000000000002 0 0 0
25 1 3.0840000000000005 3.0840000000000005 9.251999999999999 0 0 -1
26 1 4.6259999999999994 4.6259999999999994 1.542 0 0 0
27 1 3.084000000000001 3.084000000000001 3.084000000000001 0 0 0
28 1 4.626 4.6259999999999994 4.626 0 0 0
29 1 3.084 3.084 6.168 0 0 0
30 1 4.626 4.626 7.710000000000001 0 0 0
31 1 3.084 6.168 9.251999999999999 0 0 -1
32 1 4.626 7.710000000000002 1.542 0 0 0
33 1 3.084 6.168 3.084 0 0 0
34 1 4.626 7.710000000000001 4.626 0 0 0
35 1 3.084 6.168 6.168 0 0 0
36 1 4.6259999999999994 7.710000000000001 7.710000000000001 0 0 0
37 1 6.168 9.251999999999999 9.251999999999999 0 -1 -1
38 1 7.710000000000002 1.542 1.542 0 0 0
39 1 6.168 9.251999999999999 3.084 0 -1 0
40 1 7.710000000000001 1.542 4.6259999999999994 0 0 0
41 1 6.168 0 6.168 0 0 0
42 1 7.709999999999999 1.542 7.710000000000002 0 0 0
43 1 6.168 3.084 9.251999999999999 0 0 -1
44 1 7.710000000000002 4.626 1.5419999999999998 0 0 0
45 1 6.168 3.084 3.084 0 0 0
46 1 7.710000000000001 4.626 4.6259999999999994 0 0 0
47 1 6.168 3.084 6.168 0 0 0
48 1 7.71 4.6259999999999994 7.710000000000001 0 0 0
49 1 6.168 6.168 0 0 0 0
50 1 7.710000000000001 7.710000000000001 1.542 0 0 0
51 1 6.168 6.168 3.084 0 0 0
52 1 7.710000000000001 7.710000000000001 4.6259999999999994 0 0 0
53 1 6.168 6.168 6.168 0 0 0
54 1 7.710000000000001 7.710000000000001 7.710000000000001 0 0 0

Velocities

1 0 0 0
2 0 0 0
3 0 0 0
4 0 0 0
5 0 0 0
6 0 0 0
7 0 0 0
8 0 0 0
9 0 0 0
10 0 0 0
11 0 0 0
12 0 0 0
13 0 0 0
14 0 0 0
15 0 0 0
16 0 0 0
17 0 0 0
18 0 0 0
19 0 0 0
20 0 0 0
21 0 0 0
22 0 0 0
23 0 0 0
24 0 0 0
25 0 0 0
26 0 0 0
27 0 0 0
28 0 0 0
29 0 0 0
30 0 0 0
31 0 0 0
32 0 0 0
33 0 0 0
34 0 0 0
35 0 0 0
36 0 0 0
37 0 0 0
38 0 0 0
39 0 0 0
40 0 0 0
41 0 0 0
42 0 0 0
43 0 0 0
44 0 0 0
45 0 0 0
46 0 0 0
47 0 0 0
48 0 0 0
49 0 0 0
50 0 0 0
51 0 0 0
52 0 0 0
53 0 0 0
54 0 0 0
