LAMMPS (29 Sep 2021)
# SW potential for Silicon

units		metal
dimension       3
processors      * * *
boundary	p p p

#read data
atom_style      atomic

# read restart
#read_restart    S300K.rest

#read data
read_data       Si_512.dat
Reading data file ...
  triclinic box = (0.0000000 0.0000000 0.0000000) to (21.724000 21.724000 21.724000) with tilt (0.0000000 0.0000000 0.0000000)
  1 by 1 by 1 MPI processor grid
  reading atoms ...
  512 atoms
  read_data CPU = 0.006 seconds

#potential
pair_style      sw
pair_coeff      * * Si.sw Si
Reading sw potential file Si.sw with DATE: 2007-06-11

neighbor        2.0 bin
neigh_modify    every 1 delay 0 check yes

#outputs
velocity all create 300.0 121 mom yes dist gaussian
thermo		100
thermo_style	custom time temp press vol pe econserve
dump            1 all custom 100 md.lammpstrj id type xs ys zs vx vy vz fx fy fz
dump_modify     1 format line "%d %d %5.10f %5.10f %5.10f %5.10f %5.10f %5.10f %5.10f %5.10f %5.10f" pbc yes sort id

timestep        1e-3

#initial mixing
fix             2 all nve
run             50000
Neighbor list info ...
  update every 1 steps, delay 0 steps, check yes
  max neighbors/atom: 2000, page size: 100000
  master list distance cutoff = 5.77118
  ghost atom cutoff = 5.77118
  binsize = 2.88559, bins = 8 8 8
  1 neighbor lists, perpetual/occasional/extra = 1 0 0
  (1) pair sw, perpetual
      attributes: full, newton on
      pair build: full/bin/atomonly
      stencil: full/bin/3d
      bin: standard
Per MPI rank memory allocation (min/avg/max) = 5.273 | 5.273 | 5.273 Mbytes
Time Temp Press Volume PotEng Econserve 
           0          300    2036.3253    10252.255   -2220.2982   -2200.4827 
         0.1    137.69453    2004.3497    10252.255   -2209.5592   -2200.4643 
         0.2    128.89345    1986.8783    10252.255   -2208.9769   -2200.4632 
         0.3    148.89103    1837.0151    10252.255   -2210.3019   -2200.4674 
         0.4    128.64066    1699.2874    10252.255   -2208.9627   -2200.4658 
         0.5    152.68332    1761.7749    10252.255   -2210.5532   -2200.4681 
         0.6     156.9687    1880.5781    10252.255   -2210.8362   -2200.4681 
         0.7     118.9718    1831.2326    10252.255    -2208.322   -2200.4636 
         0.8    155.19705    1740.6745    10252.255   -2210.7198   -2200.4688 
         0.9    148.59359    1860.8324    10252.255   -2210.2813   -2200.4664 
           1    124.83773    1872.7223    10252.255   -2208.7103   -2200.4645 
         1.1    159.75945    1827.2696    10252.255   -2211.0211   -2200.4687 
         1.2     156.8165    1773.0653    10252.255   -2210.8264   -2200.4684 
         1.3    142.92699     1847.857    10252.255   -2209.9071   -2200.4665 
         1.4    155.63382    1791.3886    10252.255    -2210.747   -2200.4671 
         1.5    150.16213    1898.2818    10252.255   -2210.3858   -2200.4673 
         1.6    154.01233    1963.9497    10252.255   -2210.6397   -2200.4669 
         1.7     165.0016    1792.4633    10252.255   -2211.3682   -2200.4695 
         1.8    161.67845    1833.0537    10252.255   -2211.1474   -2200.4683 
         1.9    146.50039     1961.259    10252.255   -2210.1416    -2200.465 
           2    157.43623    1914.8921    10252.255   -2210.8667   -2200.4677 
         2.1    129.17326    1891.3912    10252.255   -2208.9967   -2200.4646 
         2.2    154.83599     1864.861    10252.255    -2210.695   -2200.4678 
         2.3    129.51504    1686.1719    10252.255   -2209.0209   -2200.4662 
         2.4    122.78991      1690.92    10252.255   -2208.5761   -2200.4656 
         2.5     149.2646    1771.4569    10252.255   -2210.3276   -2200.4684 
         2.6     157.2676    1800.6225    10252.255   -2210.8562   -2200.4684 
         2.7    134.85377    1943.4582    10252.255   -2209.3714    -2200.464 
         2.8    163.19895    1835.1046    10252.255   -2211.2488   -2200.4692 
         2.9    151.50635    1830.1263    10252.255   -2210.4746   -2200.4674 
           3    162.26987    1957.4917    10252.255   -2211.1854   -2200.4671 
         3.1    168.78768    2004.9455    10252.255   -2211.6169   -2200.4681 
         3.2    166.33491    1943.6854    10252.255   -2211.4547    -2200.468 
         3.3    152.16365    1855.2172    10252.255   -2210.5184   -2200.4677 
         3.4    131.32938    1772.2451    10252.255   -2209.1398   -2200.4653 
         3.5    148.56616    1781.0712    10252.255   -2210.2797   -2200.4666 
         3.6    146.21462    1857.6397    10252.255   -2210.1246   -2200.4668 
         3.7    151.98167    1761.9871    10252.255   -2210.5066   -2200.4679 
         3.8    154.98759    2069.8654    10252.255   -2210.7033   -2200.4661 
         3.9     136.6252    1875.0666    10252.255   -2209.4899   -2200.4656 
           4    156.87971    1811.3849    10252.255   -2210.8303   -2200.4681 
         4.1    168.45291    1919.8094    10252.255   -2211.5953   -2200.4686 
         4.2    132.57486    1749.6605    10252.255   -2209.2225   -2200.4657 
         4.3    144.91853    1703.7658    10252.255   -2210.0404   -2200.4682 
         4.4    158.21791    1879.1621    10252.255    -2210.918   -2200.4674 
         4.5    137.87752    1881.5388    10252.255   -2209.5728   -2200.4657 
         4.6    164.38056    1844.3682    10252.255   -2211.3261   -2200.4684 
         4.7    150.62383    2011.3042    10252.255    -2210.415    -2200.466 
         4.8    151.22329    1796.4002    10252.255   -2210.4562   -2200.4676 
         4.9    172.76215    1820.7042    10252.255   -2211.8804   -2200.4691 
           5    135.99984    1888.1903    10252.255   -2209.4485   -2200.4655 
         5.1    145.57448    1833.2682    10252.255    -2210.082   -2200.4665 
         5.2    134.63121    1727.7419    10252.255   -2209.3591   -2200.4665 
         5.3    134.53478     1848.788    10252.255   -2209.3512   -2200.4649 
         5.4    142.21893    1755.7123    10252.255   -2209.8607   -2200.4668 
         5.5    148.10781     1678.197    10252.255   -2210.2508    -2200.468 
         5.6    143.01458     1838.025    10252.255   -2209.9129   -2200.4665 
         5.7    172.79004    1786.6822    10252.255   -2211.8828   -2200.4697 
         5.8    155.88839    1888.7563    10252.255   -2210.7641   -2200.4674 
         5.9     143.2264     1965.135    10252.255   -2209.9261   -2200.4658 
           6    159.97357    1952.7995    10252.255   -2211.0335    -2200.467 
         6.1    141.08077    1801.5325    10252.255   -2209.7859   -2200.4672 
         6.2    146.34295     1794.592    10252.255   -2210.1331   -2200.4668 
         6.3    169.20667    1873.7185    10252.255    -2211.645   -2200.4686 
         6.4    142.81983    1824.0485    10252.255   -2209.8999   -2200.4664 
         6.5    141.07041    1850.0689    10252.255   -2209.7835   -2200.4656 
         6.6    148.62195    1806.0232    10252.255    -2210.284   -2200.4673 
         6.7     140.7599    1711.5275    10252.255   -2209.7642   -2200.4667 
         6.8    148.00749    1763.0887    10252.255   -2210.2431   -2200.4669 
         6.9    164.07541    1894.0727    10252.255   -2211.3056   -2200.4681 
           7     136.3393    1890.2079    10252.255   -2209.4711   -2200.4656 
         7.1    151.17895    1908.9108    10252.255   -2210.4515   -2200.4658 
         7.2    159.08518    1811.1768    10252.255    -2210.976   -2200.4681 
         7.3    154.07783    1768.3192    10252.255   -2210.6457   -2200.4685 
         7.4    156.05281    1838.7668    10252.255   -2210.7748   -2200.4672 
         7.5    154.60131    1843.8166    10252.255   -2210.6795   -2200.4677 
         7.6    153.74252    1948.7321    10252.255   -2210.6215   -2200.4665 
         7.7    150.65833    1954.8195    10252.255   -2210.4173   -2200.4661 
         7.8    147.06544    1953.2258    10252.255   -2210.1804   -2200.4664 
         7.9    169.46716    1955.7532    10252.255   -2211.6622   -2200.4686 
           8    143.78906    1845.8222    10252.255   -2209.9642   -2200.4667 
         8.1    150.35906    1705.5436    10252.255   -2210.3993   -2200.4678 
         8.2    132.52541    1724.2667    10252.255   -2209.2192   -2200.4656 
         8.3     137.1797    1696.1435    10252.255   -2209.5272   -2200.4663 
         8.4    136.48208    1721.1673    10252.255   -2209.4818   -2200.4668 
         8.5    154.29546    1868.5911    10252.255   -2210.6587   -2200.4672 
         8.6    146.13774    1761.6355    10252.255   -2210.1193   -2200.4666 
         8.7    149.60701    1806.6814    10252.255   -2210.3493   -2200.4674 
         8.8    148.14045    1812.0265    10252.255    -2210.252   -2200.4671 
         8.9    155.19801    1944.6194    10252.255   -2210.7179   -2200.4668 
           9    168.81681    1876.6414    10252.255   -2211.6193   -2200.4686 
         9.1    160.79196    1970.5682    10252.255   -2211.0883   -2200.4677 
         9.2     145.7176    1852.6257    10252.255   -2210.0915   -2200.4666 
         9.3    133.36669    1737.2131    10252.255   -2209.2749   -2200.4658 
         9.4    146.17627    1879.7926    10252.255   -2210.1215   -2200.4663 
         9.5    167.53354    1821.4213    10252.255   -2211.5347   -2200.4688 
         9.6    133.09073    1814.1894    10252.255   -2209.2569    -2200.466 
         9.7    143.63172    1822.9983    10252.255   -2209.9535   -2200.4664 
         9.8    151.90407    1733.3692    10252.255   -2210.5016    -2200.468 
         9.9    139.15637    1719.2096    10252.255   -2209.6582   -2200.4666 
          10    149.23044    1810.5779    10252.255   -2210.3237   -2200.4667 
        10.1    157.83045    1823.1879    10252.255   -2210.8932   -2200.4681 
        10.2    128.00182    1824.0524    10252.255   -2208.9188    -2200.464 
        10.3    154.67786    1755.7109    10252.255   -2210.6849   -2200.4681 
        10.4    163.92518    1852.6673    10252.255   -2211.2957   -2200.4681 
        10.5    152.51422    1856.3759    10252.255   -2210.5413   -2200.4674 
        10.6    165.43814     1875.274    10252.255   -2211.3959   -2200.4683 
        10.7    159.52203    1983.3753    10252.255   -2211.0038    -2200.467 
        10.8    142.07165    1921.4013    10252.255   -2209.8496   -2200.4655 
        10.9    172.10259    1947.1368    10252.255   -2211.8359   -2200.4682 
          11     148.7042    2005.8285    10252.255   -2210.2882    -2200.466 
        11.1    146.41203    1870.4373    10252.255    -2210.137   -2200.4662 
        11.2    153.34078    1695.8509    10252.255   -2210.5967   -2200.4683 
        11.3    144.12201    1643.9409    10252.255   -2209.9873   -2200.4678 
        11.4    131.41364    1658.7969    10252.255   -2209.1463   -2200.4662 
        11.5    129.10912    1813.5725    10252.255   -2208.9925   -2200.4646 
        11.6    161.62287    1847.6534    10252.255   -2211.1439   -2200.4684 
        11.7     167.1354    1897.6492    10252.255   -2211.5077   -2200.4681 
        11.8    150.16348    1786.9787    10252.255   -2210.3858   -2200.4672 
        11.9    140.53466    1850.6563    10252.255   -2209.7491   -2200.4665 
          12    148.74644    1832.8864    10252.255   -2210.2914   -2200.4664 
        12.1    158.13024    1801.9651    10252.255   -2210.9129   -2200.4681 
        12.2     158.5663    1854.2957    10252.255   -2210.9415   -2200.4679 
        12.3    155.42573    1810.9613    10252.255   -2210.7336   -2200.4675 
        12.4    142.86332    1760.4367    10252.255   -2209.9036   -2200.4672 
        12.5    145.71336    1847.5118    10252.255   -2210.0908   -2200.4662 
        12.6    136.54917    1899.3635    10252.255   -2209.4844   -2200.4651 
        12.7    151.31664    1826.6773    10252.255   -2210.4624   -2200.4676 
        12.8    146.48454    1765.6432    10252.255   -2210.1425   -2200.4669 
        12.9    146.82008    1752.7587    10252.255   -2210.1649   -2200.4671 
          13    151.55121    1799.9496    10252.255   -2210.4778   -2200.4676 
        13.1    148.93661    1715.2508    10252.255   -2210.3053   -2200.4678 
        13.2    139.01679    1818.4853    10252.255    -2209.648   -2200.4657 
        13.3    139.70423    1795.7109    10252.255   -2209.6942   -2200.4664 
        13.4    150.03323    1686.7709    10252.255   -2210.3776   -2200.4676 
        13.5    160.09853    1859.1482    10252.255   -2211.0427   -2200.4679 
        13.6    175.50425    1927.7901    10252.255   -2212.0615   -2200.4691 
        13.7    141.64797    1914.2005    10252.255   -2209.8218   -2200.4657 
        13.8    149.92411    1907.3885    10252.255   -2210.3692   -2200.4664 
        13.9    163.36688    1835.7149    10252.255    -2211.259   -2200.4683 
          14    138.53188      1808.28    10252.255   -2209.6162   -2200.4659 
        14.1    145.75824    1882.7061    10252.255    -2210.094   -2200.4664 
        14.2     153.7744    1845.7298    10252.255   -2210.6246   -2200.4675 
        14.3    139.38951    1763.6067    10252.255   -2209.6726   -2200.4657 
        14.4     149.3069    1748.2265    10252.255   -2210.3293   -2200.4673 
        14.5    144.69654    1783.1918    10252.255   -2210.0242   -2200.4667 
        14.6    143.55797     1783.394    10252.255   -2209.9487   -2200.4664 
        14.7    167.50998    1798.0172    10252.255   -2211.5335   -2200.4691 
        14.8    165.71236    1961.1141    10252.255   -2211.4128   -2200.4671 
        14.9    156.92381    1800.6176    10252.255    -2210.833   -2200.4679 
          15     146.6301    1825.8812    10252.255   -2210.1516   -2200.4664 
        15.1    143.23636    1836.1553    10252.255   -2209.9266   -2200.4656 
        15.2    151.06882    1695.7405    10252.255   -2210.4463   -2200.4679 
        15.3    159.99234    1721.3889    10252.255   -2211.0365   -2200.4687 
        15.4    147.05316    1841.4728    10252.255   -2210.1795   -2200.4664 
        15.5    151.38474    1876.5705    10252.255   -2210.4656   -2200.4664 
        15.6    134.19527    1776.5914    10252.255   -2209.3295   -2200.4656 
        15.7    148.47425    1819.3233    10252.255   -2210.2737   -2200.4667 
        15.8    147.05544    1752.2215    10252.255   -2210.1802   -2200.4669 
        15.9    130.92432    1642.3532    10252.255   -2209.1139   -2200.4661 
          16    152.09385    1734.4497    10252.255   -2210.5137   -2200.4676 
        16.1    148.05852    1702.0203    10252.255   -2210.2473   -2200.4678 
        16.2    148.75474     1708.208    10252.255   -2210.2925    -2200.467 
        16.3    152.57893    1822.3373    10252.255   -2210.5452    -2200.467 
        16.4     162.6724    1799.3014    10252.255   -2211.2134   -2200.4685 
        16.5    149.11065    1804.9825    10252.255   -2210.3165   -2200.4675 
        16.6    157.94022    1951.4074    10252.255   -2210.8981   -2200.4659 
        16.7     148.2069    1821.7767    10252.255   -2210.2564   -2200.4671 
        16.8    149.25033    1923.3662    10252.255   -2210.3248   -2200.4665 
        16.9    157.78441     1811.449    10252.255   -2210.8895   -2200.4676 
          17    146.07362    1791.6604    10252.255   -2210.1158   -2200.4674 
        17.1    145.50227    1754.2477    10252.255   -2210.0772   -2200.4665 
        17.2    131.23085    1745.3436    10252.255    -2209.134   -2200.4659 
        17.3    140.85326     1756.027    10252.255   -2209.7703   -2200.4667 
        17.4    150.02524    1858.5339    10252.255    -2210.376   -2200.4665 
        17.5    152.71497    1786.4476    10252.255   -2210.5547   -2200.4676 
        17.6    153.51582    1797.9773    10252.255   -2210.6078   -2200.4678 
        17.7    152.76166    1831.1447    10252.255    -2210.557   -2200.4668 
        17.8    153.79113    1701.0809    10252.255   -2210.6262    -2200.468 
        17.9    152.10039    1869.7913    10252.255   -2210.5137   -2200.4672 
          18    170.85967    1951.7243    10252.255   -2211.7535   -2200.4679 
        18.1    154.71101    1865.1643    10252.255   -2210.6861   -2200.4671 
        18.2    155.89633    1879.8306    10252.255   -2210.7646   -2200.4673 
        18.3    144.57733    1837.6634    10252.255   -2210.0151   -2200.4655 
        18.4    140.11482    1813.6597    10252.255   -2209.7207   -2200.4658 
        18.5    160.78407    1788.3621    10252.255   -2211.0887   -2200.4686 
        18.6    157.22904    1917.1459    10252.255   -2210.8526   -2200.4673 
        18.7     135.4554    1794.2503    10252.255    -2209.413   -2200.4659 
        18.8    138.70612     1782.147    10252.255   -2209.6276   -2200.4658 
        18.9    148.05083    1768.6767    10252.255   -2210.2462   -2200.4671 
          19    147.45683    1679.1266    10252.255   -2210.2077   -2200.4679 
        19.1    144.19622    1718.9974    10252.255   -2209.9918   -2200.4674 
        19.2    148.32201    1727.6967    10252.255   -2210.2639    -2200.467 
        19.3    157.78593       1729.2    10252.255   -2210.8908   -2200.4687 
        19.4    144.04836    1802.5386    10252.255    -2209.981   -2200.4664 
        19.5    154.96954    1935.9583    10252.255   -2210.7025   -2200.4665 
        19.6    158.90047    1927.2909    10252.255   -2210.9629   -2200.4672 
        19.7    152.13277    1794.6961    10252.255   -2210.5161   -2200.4675 
        19.8    151.25584    1803.9305    10252.255   -2210.4579   -2200.4672 
        19.9    146.03501    1832.4117    10252.255   -2210.1119    -2200.466 
          20    139.54355    1821.4878    10252.255   -2209.6829   -2200.4658 
        20.1    155.15207    1876.5865    10252.255   -2210.7153   -2200.4672 
        20.2    155.89711    1810.4125    10252.255   -2210.7651   -2200.4678 
        20.3    132.19857    1615.9964    10252.255   -2209.1983   -2200.4663 
        20.4    160.63058     1754.594    10252.255   -2211.0781   -2200.4682 
        20.5    134.67548    1714.6075    10252.255   -2209.3619   -2200.4663 
        20.6    144.21043    1810.5467    10252.255   -2209.9917   -2200.4664 
        20.7    148.52274     1801.683    10252.255   -2210.2775   -2200.4672 
        20.8    150.81432    1752.7453    10252.255   -2210.4291   -2200.4675 
        20.9    145.62086    1743.3401    10252.255   -2210.0858   -2200.4672 
          21    158.95053    1859.9521    10252.255   -2210.9668   -2200.4678 
        21.1     163.9221    1920.5506    10252.255   -2211.2953   -2200.4679 
        21.2    153.84017    1925.1482    10252.255   -2210.6282   -2200.4667 
        21.3    147.81658    1933.0116    10252.255   -2210.2294   -2200.4658 
        21.4    134.97742    1854.2984    10252.255   -2209.3814   -2200.4658 
        21.5    168.45257    1830.0993    10252.255   -2211.5952   -2200.4685 
        21.6    148.01678    1837.3434    10252.255   -2210.2437   -2200.4669 
        21.7    157.35175    1875.4122    10252.255   -2210.8607   -2200.4673 
        21.8    150.45994    1843.3069    10252.255    -2210.405   -2200.4668 
        21.9    151.08783    1796.0355    10252.255   -2210.4474   -2200.4678 
          22    146.09937     1798.202    10252.255   -2210.1166   -2200.4664 
        22.1    149.18013    1829.2588    10252.255   -2210.3206    -2200.467 
        22.2    155.14589    1719.4895    10252.255    -2210.716   -2200.4683 
        22.3    136.92302    1669.6595    10252.255   -2209.5107   -2200.4666 
        22.4    147.17887    1824.6852    10252.255   -2210.1879   -2200.4665 
        22.5     140.4399    1780.9225    10252.255    -2209.743   -2200.4666 
        22.6    159.77021    1921.3699    10252.255   -2211.0206   -2200.4675 
        22.7    162.45918    1954.9232    10252.255   -2211.1985   -2200.4678 
        22.8    144.86588    1859.2657    10252.255   -2210.0353   -2200.4666 
        22.9    141.45793    1786.5452    10252.255   -2209.8096    -2200.466 
          23    151.66938    1776.2195    10252.255   -2210.4856   -2200.4676 
        23.1    147.04444    1817.7771    10252.255   -2210.1792   -2200.4666 
        23.2    140.21697    1826.6774    10252.255   -2209.7276    -2200.466 
        23.3    159.79127    1835.7072    10252.255   -2211.0226   -2200.4681 
        23.4    157.22904    1686.7093    10252.255   -2210.8536   -2200.4683 
        23.5    137.61588    1727.3011    10252.255   -2209.5558    -2200.466 
        23.6    141.19036    1770.0047    10252.255   -2209.7921   -2200.4662 
        23.7    154.24581    1785.2246    10252.255   -2210.6558   -2200.4676 
        23.8    139.58846    1755.9706    10252.255   -2209.6857   -2200.4656 
        23.9    158.63329      1775.76    10252.255   -2210.9463   -2200.4683 
          24    158.30715    1838.3539    10252.255   -2210.9244   -2200.4679 
        24.1    137.90559    1756.5219    10252.255    -2209.575    -2200.466 
        24.2    151.72967    1897.4799    10252.255   -2210.4886   -2200.4666 
        24.3    152.08974    1807.8819    10252.255   -2210.5129   -2200.4671 
        24.4    145.40411    1763.5872    10252.255   -2210.0718   -2200.4676 
        24.5    157.35726    1821.4533    10252.255   -2210.8612   -2200.4674 
        24.6    141.77707    1909.5391    10252.255   -2209.8295   -2200.4649 
        24.7    154.05253    1768.4109    10252.255   -2210.6434   -2200.4679 
        24.8    160.95506    1785.7986    10252.255   -2211.0997   -2200.4683 
        24.9    148.16089    1847.6603    10252.255   -2210.2527   -2200.4664 
          25    145.05474    1723.0473    10252.255   -2210.0482   -2200.4671 
        25.1    148.48516    1840.4904    10252.255    -2210.274   -2200.4662 
        25.2    162.38385    1786.2094    10252.255   -2211.1941   -2200.4684 
        25.3    152.61007    1803.1276    10252.255   -2210.5477   -2200.4675 
        25.4    135.43299    1783.1404    10252.255    -2209.411   -2200.4654 
        25.5    154.55789    1865.0211    10252.255   -2210.6762   -2200.4673 
        25.6    151.55223    1783.8246    10252.255   -2210.4779   -2200.4676 
        25.7    162.32691    1939.6888    10252.255    -2211.189    -2200.467 
        25.8    154.03311    1935.7103    10252.255   -2210.6413   -2200.4671 
        25.9    155.09413    1869.1881    10252.255   -2210.7115   -2200.4672 
          26    151.24927    1847.3306    10252.255   -2210.4576   -2200.4673 
        26.1    138.37133     1732.749    10252.255   -2209.6058   -2200.4661 
        26.2    141.78868    1805.2671    10252.255   -2209.8319   -2200.4665 
        26.3    131.15624    1746.2876    10252.255   -2209.1286   -2200.4655 
        26.4    152.99004    1765.9908    10252.255   -2210.5726   -2200.4673 
        26.5    160.12389    1768.2282    10252.255   -2211.0453   -2200.4688 
        26.6    152.40272    1791.9332    10252.255   -2210.5335    -2200.467 
        26.7    141.01497    1797.0217    10252.255   -2209.7807   -2200.4664 
        26.8    148.91856    1800.3024    10252.255   -2210.3031   -2200.4667 
        26.9    144.60389    1767.0865    10252.255   -2210.0179   -2200.4666 
          27    152.60373     1728.299    10252.255    -2210.548   -2200.4682 
        27.1     156.2297    1934.1014    10252.255   -2210.7861   -2200.4668 
        27.2    147.56662    1834.5212    10252.255   -2210.2137   -2200.4666 
        27.3    156.77125    1815.9686    10252.255   -2210.8229   -2200.4678 
        27.4    144.71401    1848.1621    10252.255   -2210.0247   -2200.4661 
        27.5    150.67788    1869.7004    10252.255   -2210.4191   -2200.4665 
        27.6    148.19247    1742.5682    10252.255    -2210.256   -2200.4676 
        27.7    152.39787    1858.8952    10252.255   -2210.5331   -2200.4669 
        27.8    146.25922    1806.8817    10252.255   -2210.1273   -2200.4666 
        27.9    131.75577     1796.675    10252.255   -2209.1677    -2200.465 
          28    152.28148    1777.8511    10252.255   -2210.5258   -2200.4673 
        28.1    153.36045    1713.3193    10252.255   -2210.5983   -2200.4686 
        28.2     149.7976    1702.7098    10252.255    -2210.362   -2200.4676 
        28.3    148.03574    1816.2877    10252.255   -2210.2444   -2200.4664 
        28.4    151.05346    1836.2469    10252.255   -2210.4442   -2200.4668 
        28.5    154.43225    1802.3414    10252.255   -2210.6682   -2200.4676 
        28.6    156.68145    1855.3047    10252.255   -2210.8164   -2200.4673 
        28.7    157.62382    1953.3169    10252.255   -2210.8777   -2200.4664 
        28.8    152.10244    1840.0163    10252.255   -2210.5143   -2200.4677 
        28.9     155.7265    1892.5235    10252.255    -2210.753    -2200.467 
          29    154.31051    1950.5143    10252.255   -2210.6592   -2200.4667 
        29.1    151.37696    1859.6576    10252.255   -2210.4652   -2200.4665 
        29.2    140.27512    1779.3744    10252.255   -2209.7312   -2200.4658 
        29.3    150.86983    1820.5965    10252.255   -2210.4326   -2200.4673 
        29.4    137.13699    1642.4492    10252.255   -2209.5249   -2200.4668 
        29.5     138.1301    1763.8176    10252.255     -2209.59   -2200.4663 
        29.6    161.92537    1857.3704    10252.255   -2211.1636   -2200.4681 
        29.7    146.25412     1758.114    10252.255   -2210.1277   -2200.4673 
        29.8    161.25943     1809.067    10252.255   -2211.1198   -2200.4683 
        29.9    146.58283    1787.5567    10252.255   -2210.1489   -2200.4668 
          30     138.0204    1762.8496    10252.255   -2209.5827   -2200.4662 
        30.1    148.90568     1738.198    10252.255   -2210.3029   -2200.4674 
        30.2    157.27198      1823.95    10252.255   -2210.8561   -2200.4679 
        30.3    147.88984    1855.4823    10252.255   -2210.2349   -2200.4665 
        30.4    147.21295    1948.5271    10252.255   -2210.1895   -2200.4658 
        30.5    154.87993    1847.2346    10252.255   -2210.6969   -2200.4668 
        30.6    161.10146    1840.8824    10252.255   -2211.1093   -2200.4683 
        30.7    148.70796    1832.1637    10252.255   -2210.2892   -2200.4668 
        30.8    137.45567    1777.0679    10252.255   -2209.5451   -2200.4659 
        30.9    144.98848    1803.8908    10252.255   -2210.0435   -2200.4667 
          31    142.11589    1701.7815    10252.255   -2209.8536   -2200.4665 
        31.1    150.99735    1774.0666    10252.255   -2210.4414   -2200.4677 
        31.2    145.37159    1747.2529    10252.255    -2210.069   -2200.4669 
        31.3    153.90755    1752.5248    10252.255   -2210.6336   -2200.4677 
        31.4    147.72067    1620.4179    10252.255   -2210.2255   -2200.4682 
        31.5    150.33627    1817.6049    10252.255   -2210.3967   -2200.4667 
        31.6    144.21319    1806.5315    10252.255   -2209.9919   -2200.4663 
        31.7    157.36248    1829.2708    10252.255   -2210.8613   -2200.4672 
        31.8    156.22914    1947.6839    10252.255   -2210.7861   -2200.4668 
        31.9    146.66083    1854.3729    10252.255   -2210.1533    -2200.466 
          32    147.83398     1841.925    10252.255    -2210.231   -2200.4663 
        32.1    156.49886    1857.8894    10252.255   -2210.8042   -2200.4671 
        32.2    162.99344     1810.507    10252.255   -2211.2342   -2200.4682 
        32.3    140.61365    1827.3515    10252.255   -2209.7537   -2200.4659 
        32.4    153.74608    1798.6533    10252.255   -2210.6223    -2200.467 
        32.5     143.6992    1716.5545    10252.255   -2209.9585   -2200.4669 
        32.6    153.72404    1757.8257    10252.255   -2210.6213   -2200.4675 
        32.7    144.68623    1785.1961    10252.255   -2210.0235   -2200.4667 
        32.8    158.89531    1843.8661    10252.255   -2210.9631   -2200.4678 
        32.9    158.66225    1782.3951    10252.255   -2210.9481   -2200.4682 
          33    139.90585    1757.5628    10252.255   -2209.7076   -2200.4665 
        33.1    152.01163    1840.0499    10252.255   -2210.5073   -2200.4666 
        33.2    138.42482    1755.8509    10252.255   -2209.6096   -2200.4663 
        33.3    146.50006    1720.9884    10252.255   -2210.1432   -2200.4666 
        33.4    153.93797    1897.4627    10252.255    -2210.635   -2200.4671 
        33.5    147.52413    1844.9184    10252.255   -2210.2108   -2200.4666 
        33.6    146.94832    1909.8801    10252.255    -2210.172   -2200.4658 
        33.7    161.12232    1967.2322    10252.255   -2211.1097   -2200.4672 
        33.8     151.1192    1727.7287    10252.255   -2210.4494   -2200.4677 
        33.9    149.90572    1738.2125    10252.255   -2210.3693   -2200.4677 
          34    157.34157    1778.9342    10252.255   -2210.8607    -2200.468 
        34.1    124.80847    1704.0329    10252.255   -2208.7088    -2200.465 
        34.2    148.09581    1764.0549    10252.255   -2210.2489   -2200.4668 
        34.3    154.89529    1789.7725    10252.255   -2210.6988   -2200.4677 
        34.4    148.39719     1734.896    10252.255   -2210.2692   -2200.4672 
        34.5     150.5891    1768.4712    10252.255   -2210.4138   -2200.4671 
        34.6    152.04357    1798.0037    10252.255   -2210.5101   -2200.4674 
        34.7    143.25593    1849.2347    10252.255    -2209.928   -2200.4657 
        34.8    153.15811    1841.2432    10252.255   -2210.5835   -2200.4671 
        34.9    148.58446    1900.7102    10252.255   -2210.2803    -2200.466 
          35    146.60158    1817.3419    10252.255     -2210.15   -2200.4667 
        35.1     156.7636    1779.1714    10252.255    -2210.822   -2200.4675 
        35.2    146.77891    1785.9343    10252.255   -2210.1617   -2200.4667 
        35.3     150.2839     1734.852    10252.255   -2210.3939   -2200.4673 
        35.4    149.49127    1785.7537    10252.255   -2210.3413   -2200.4671 
        35.5    148.99511    1756.6436    10252.255   -2210.3081   -2200.4667 
        35.6    152.75481    1867.0884    10252.255   -2210.5566   -2200.4669 
        35.7    156.84817    1760.9558    10252.255    -2210.828   -2200.4679 
        35.8    150.63805    1785.1418    10252.255   -2210.4172   -2200.4673 
        35.9    143.28836    1850.3148    10252.255   -2209.9299   -2200.4654 
          36    142.40328    1777.1071    10252.255   -2209.8723   -2200.4663 
        36.1    152.47809    1753.6345    10252.255   -2210.5388   -2200.4674 
        36.2     156.8879    1865.0545    10252.255     -2210.83   -2200.4672 
        36.3    150.38211    1763.6504    10252.255   -2210.4001   -2200.4671 
        36.4     154.3673    1846.8128    10252.255   -2210.6632   -2200.4669 
        36.5     145.0519    1849.3936    10252.255   -2210.0472   -2200.4662 
        36.6     153.7365    1870.9024    10252.255   -2210.6216    -2200.467 
        36.7    146.48252    1949.9777    10252.255   -2210.1411   -2200.4656 
        36.8    159.78065    1834.1799    10252.255    -2211.022   -2200.4682 
        36.9    154.15226    1731.8927    10252.255   -2210.6501    -2200.468 
          37    152.10688    1727.0677    10252.255   -2210.5143   -2200.4673 
        37.1    133.12781    1650.0124    10252.255   -2209.2598   -2200.4665 
        37.2    139.40818    1720.0605    10252.255   -2209.6742    -2200.466 
        37.3    144.92635    1717.9663    10252.255   -2210.0394   -2200.4667 
        37.4    142.32828    1749.7101    10252.255   -2209.8679   -2200.4668 
        37.5    157.37562    1922.6352    10252.255   -2210.8615   -2200.4665 
        37.6    147.65582    1837.2243    10252.255   -2210.2198   -2200.4668 
        37.7    157.09897     1814.689    10252.255   -2210.8439   -2200.4672 
        37.8    154.03783    1875.5425    10252.255   -2210.6411   -2200.4666 
        37.9    153.53168    1710.1633    10252.255   -2210.6088   -2200.4677 
          38    144.10635    1767.6272    10252.255   -2209.9851   -2200.4666 
        38.1    155.12966     1832.116    10252.255   -2210.7136    -2200.467 
        38.2    144.43031    1763.9567    10252.255   -2210.0063   -2200.4664 
        38.3    151.63784    1757.7665    10252.255   -2210.4836   -2200.4676 
        38.4    154.38406     1823.492    10252.255   -2210.6643    -2200.467 
        38.5    137.02596    1746.7859    10252.255   -2209.5165   -2200.4657 
        38.6    162.21033     1723.545    10252.255   -2211.1832   -2200.4689 
        38.7     144.6943    1825.4165    10252.255   -2210.0238   -2200.4665 
        38.8    142.74114    1770.6561    10252.255   -2209.8944   -2200.4661 
        38.9    147.34454    1743.7302    10252.255   -2210.1996   -2200.4672 
          39      139.945    1846.2684    10252.255    -2209.709   -2200.4654 
        39.1    147.81196    1746.0855    10252.255   -2210.2301   -2200.4668 
        39.2    160.33138    1805.7696    10252.255   -2211.0584   -2200.4682 
        39.3     156.2727    1870.6468    10252.255   -2210.7887   -2200.4666 
        39.4    162.02876    1869.3406    10252.255   -2211.1706   -2200.4683 
        39.5    154.02014    1884.6637    10252.255   -2210.6399   -2200.4666 
        39.6    150.27547     1924.326    10252.255   -2210.3918   -2200.4659 
        39.7    161.46698    1838.7867    10252.255   -2211.1332    -2200.468 
        39.8     150.8581    1831.1508    10252.255   -2210.4314   -2200.4669 
        39.9    143.43957    1813.8963    10252.255   -2209.9406   -2200.4661 
          40    149.19961    1782.1299    10252.255   -2210.3217   -2200.4668 
        40.1    139.10572    1701.6913    10252.255   -2209.6545   -2200.4663 
        40.2    147.59128    1746.0044    10252.255   -2210.2159   -2200.4672 
        40.3    145.00983     1742.171    10252.255   -2210.0449   -2200.4668 
        40.4    139.80199    1715.8478    10252.255   -2209.7007   -2200.4666 
        40.5    149.90222    1834.6337    10252.255   -2210.3679   -2200.4666 
        40.6    147.69115    1884.2212    10252.255   -2210.2217   -2200.4664 
        40.7    151.80384    1861.9287    10252.255   -2210.4936   -2200.4667 
        40.8    160.59835    1876.1711    10252.255    -2211.075   -2200.4672 
        40.9    147.67191    1755.9909    10252.255   -2210.2215   -2200.4675 
          41    149.23201    1726.6729    10252.255   -2210.3242   -2200.4671 
        41.1    148.05887    1810.9472    10252.255   -2210.2462   -2200.4666 
        41.2     153.3196      1749.22    10252.255   -2210.5947   -2200.4677 
        41.3    152.68038    1904.0071    10252.255   -2210.5514   -2200.4666 
        41.4    152.43401    1878.3018    10252.255   -2210.5351   -2200.4666 
        41.5    143.84801    1819.6896    10252.255   -2209.9679   -2200.4664 
        41.6    144.49777    1767.5428    10252.255   -2210.0107   -2200.4664 
        41.7    145.70567    1780.1561    10252.255   -2210.0911   -2200.4669 
        41.8    139.45961    1679.2561    10252.255   -2209.6784   -2200.4668 
        41.9    152.05764     1752.024    10252.255   -2210.5108   -2200.4671 
          42    146.12203    1686.9389    10252.255   -2210.1192   -2200.4676 
        42.1    143.41032     1787.509    10252.255   -2209.9387   -2200.4661 
        42.2    147.66492    1842.9771    10252.255   -2210.2201   -2200.4666 
        42.3    147.17441    1853.6789    10252.255   -2210.1873   -2200.4662 
        42.4    151.79502    1843.8967    10252.255   -2210.4935   -2200.4672 
        42.5    162.55449    1843.8707    10252.255   -2211.2052   -2200.4682 
        42.6     162.7681    1921.6972    10252.255   -2211.2184   -2200.4672 
        42.7    154.64093    1854.1031    10252.255   -2210.6815   -2200.4672 
        42.8    158.09342    1911.8135    10252.255   -2210.9094    -2200.467 
        42.9    143.16665    1767.6541    10252.255   -2209.9229   -2200.4665 
          43    148.99274    1790.3966    10252.255   -2210.3084   -2200.4671 
        43.1      140.689    1788.6174    10252.255   -2209.7588    -2200.466 
        43.2    153.34216    1785.9348    10252.255   -2210.5958   -2200.4673 
        43.3    151.48047    1785.7954    10252.255   -2210.4728   -2200.4672 
        43.4    149.95424    1827.1169    10252.255   -2210.3716   -2200.4668 
        43.5    152.83914    1781.5033    10252.255   -2210.5627   -2200.4674 
        43.6    139.01694    1777.6834    10252.255   -2209.6486   -2200.4663 
        43.7    154.24509     1860.179    10252.255   -2210.6551   -2200.4669 
        43.8    158.49091    1806.7472    10252.255   -2210.9368   -2200.4682 
        43.9    144.24874    1898.0075    10252.255   -2209.9938   -2200.4659 
          44    147.54878    1810.3503    10252.255   -2210.2124   -2200.4665 
        44.1    154.71217    1813.6677    10252.255   -2210.6869   -2200.4678 
        44.2    146.13412     1774.443    10252.255   -2210.1195    -2200.467 
        44.3    150.09627    1879.8512    10252.255   -2210.3812    -2200.467 
        44.4    153.52466    1868.8181    10252.255   -2210.6076    -2200.467 
        44.5    147.64639    1826.4964    10252.255   -2210.2191   -2200.4668 
        44.6    159.29195    1869.3034    10252.255   -2210.9892   -2200.4677 
        44.7    138.36333    1812.1673    10252.255   -2209.6048   -2200.4657 
        44.8    142.13329    1735.6045    10252.255   -2209.8549   -2200.4667 
        44.9    155.30499     1726.986    10252.255   -2210.7265   -2200.4683 
          45    140.83563    1696.6946    10252.255   -2209.7695   -2200.4671 
        45.1     149.5103    1772.3364    10252.255   -2210.3427   -2200.4672 
        45.2    149.71689    1856.1018    10252.255   -2210.3559   -2200.4668 
        45.3    147.67642    1910.7126    10252.255   -2210.2205   -2200.4662 
        45.4    152.24296    1900.6754    10252.255   -2210.5228   -2200.4669 
        45.5    155.73772    1891.3397    10252.255   -2210.7544   -2200.4676 
        45.6     148.9659    1827.5478    10252.255   -2210.3064   -2200.4669 
        45.7    151.78438    1856.6264    10252.255   -2210.4924   -2200.4668 
        45.8    153.03474    1856.7456    10252.255   -2210.5755   -2200.4673 
        45.9    150.37737    1824.6253    10252.255   -2210.3998   -2200.4671 
          46    148.75219    1738.2129    10252.255   -2210.2924    -2200.467 
        46.1     149.2068    1781.0654    10252.255   -2210.3231   -2200.4677 
        46.2    146.34867    1776.6889    10252.255   -2210.1335   -2200.4668 
        46.3    143.49887     1815.561    10252.255   -2209.9448   -2200.4664 
        46.4    156.57818    1850.2112    10252.255   -2210.8098   -2200.4675 
        46.5    145.30309    1830.4139    10252.255   -2210.0638   -2200.4662 
        46.6    152.27588    1856.5661    10252.255   -2210.5254   -2200.4673 
        46.7    162.36336    1837.5658    10252.255   -2211.1925   -2200.4681 
        46.8    149.06321    1852.5735    10252.255   -2210.3123   -2200.4664 
        46.9    149.30713    1833.7774    10252.255   -2210.3292   -2200.4671 
          47    150.67341    1912.2575    10252.255   -2210.4188   -2200.4665 
        47.1     145.2107    1844.9682    10252.255   -2210.0579   -2200.4665 
        47.2    153.36324    1882.2136    10252.255    -2210.597   -2200.4671 
        47.3    156.10538    1890.0972    10252.255    -2210.778   -2200.4669 
        47.4    153.51189    1764.4487    10252.255   -2210.6081   -2200.4683 
        47.5     154.8087    1827.0146    10252.255    -2210.693   -2200.4676 
        47.6    147.21261    1752.6525    10252.255   -2210.1901   -2200.4665 
        47.7    147.68821    1829.1554    10252.255   -2210.2222   -2200.4671 
        47.8    143.94553    1760.4828    10252.255   -2209.9747   -2200.4668 
        47.9     151.2411    1770.8093    10252.255   -2210.4572   -2200.4674 
          48    128.59381    1686.1168    10252.255   -2208.9598   -2200.4659 
        48.1    145.20239    1775.8861    10252.255   -2210.0575   -2200.4666 
        48.2    154.97802    1800.9303    10252.255   -2210.7046    -2200.468 
        48.3    147.48048    1851.0112    10252.255   -2210.2081   -2200.4667 
        48.4    160.37488    1947.0209    10252.255   -2211.0599   -2200.4668 
        48.5    147.18333    1927.1517    10252.255   -2210.1879   -2200.4661 
        48.6     153.6726    1879.0843    10252.255   -2210.6173   -2200.4669 
        48.7       159.34    1799.4835    10252.255   -2210.9931   -2200.4684 
        48.8    142.29254    1823.4422    10252.255   -2209.8645   -2200.4658 
        48.9    145.40405    1773.1867    10252.255   -2210.0713    -2200.467 
          49    155.69658     1761.481    10252.255   -2210.7519   -2200.4678 
        49.1    147.19254     1722.511    10252.255   -2210.1896   -2200.4672 
        49.2     153.1426    1774.7145    10252.255   -2210.5835   -2200.4682 
        49.3    147.27576    1797.3895    10252.255   -2210.1944   -2200.4666 
        49.4    138.78266    1834.8523    10252.255   -2209.6328   -2200.4659 
        49.5    157.45171     1759.826    10252.255   -2210.8679   -2200.4679 
        49.6    136.30434    1757.7681    10252.255   -2209.4688   -2200.4656 
        49.7    154.83612    1859.2098    10252.255   -2210.6944   -2200.4672 
        49.8    154.33033    1822.6497    10252.255   -2210.6614   -2200.4676 
        49.9    150.95977    1856.5234    10252.255   -2210.4379   -2200.4667 
          50    155.26473    1847.2856    10252.255    -2210.723   -2200.4675 
Loop time of 60.4302 on 1 procs for 50000 steps with 512 atoms

Performance: 71.487 ns/day, 0.336 hours/ns, 827.400 timesteps/s
99.2% CPU use with 1 MPI tasks x no OpenMP threads

MPI task timing breakdown:
Section |  min time  |  avg time  |  max time  |%varavg| %total
---------------------------------------------------------------
Pair    | 57.836     | 57.836     | 57.836     |   0.0 | 95.71
Neigh   | 0          | 0          | 0          |   0.0 |  0.00
Comm    | 0.51183    | 0.51183    | 0.51183    |   0.0 |  0.85
Output  | 1.2207     | 1.2207     | 1.2207     |   0.0 |  2.02
Modify  | 0.52281    | 0.52281    | 0.52281    |   0.0 |  0.87
Other   |            | 0.339      |            |       |  0.56

Nlocal:        512.000 ave         512 max         512 min
Histogram: 1 0 0 0 0 0 0 0 0 0
Nghost:        1450.00 ave        1450 max        1450 min
Histogram: 1 0 0 0 0 0 0 0 0 0
Neighs:         0.00000 ave           0 max           0 min
Histogram: 1 0 0 0 0 0 0 0 0 0
FullNghs:      17408.0 ave       17408 max       17408 min
Histogram: 1 0 0 0 0 0 0 0 0 0

Total # of neighbors = 17408
Ave neighs/atom = 34.000000
Neighbor list builds = 0
Dangerous builds = 0
undump          1
unfix           2

write_data S300K.dat
System init for write_data ...
write_restart S300K.rest
System init for write_restart ...
Total wall time: 0:01:00
