LAMMPS (29 Sep 2021)
# SW potential for Silicon

units		metal
dimension       3
processors      * * *
boundary	p p p

#read data
atom_style      atomic

# read restart
#read_restart    S300K.rest

#read data
read_data       Si_512.dat
Reading data file ...
  triclinic box = (0.0000000 0.0000000 0.0000000) to (21.724000 21.724000 21.724000) with tilt (0.0000000 0.0000000 0.0000000)
  1 by 1 by 1 MPI processor grid
  reading atoms ...
  512 atoms
  read_data CPU = 0.004 seconds

#potential
pair_style      sw
pair_coeff      * * Si.sw Si
Reading sw potential file Si.sw with DATE: 2007-06-11

neighbor        2.0 bin
neigh_modify    every 1 delay 0 check yes

#outputs
velocity all create 300.0 121 mom yes dist gaussian
thermo		100
thermo_style	custom time temp press vol pe econserve
dump            1 all custom 100 md.lammpstrj id type xs ys zs vx vy vz fx fy fz
dump_modify     1 format line "%d %d %5.10f %5.10f %5.10f %5.10f %5.10f %5.10f %5.10f %5.10f %5.10f" pbc yes sort id

timestep        1e-3

#initial mixing
fix             4 all temp/berendsen 300 300 0.1
fix		5 all nve
run             50000
Neighbor list info ...
  update every 1 steps, delay 0 steps, check yes
  max neighbors/atom: 2000, page size: 100000
  master list distance cutoff = 5.77118
  ghost atom cutoff = 5.77118
  binsize = 2.88559, bins = 8 8 8
  1 neighbor lists, perpetual/occasional/extra = 1 0 0
  (1) pair sw, perpetual
      attributes: full, newton on
      pair build: full/bin/atomonly
      stencil: full/bin/3d
      bin: standard
Per MPI rank memory allocation (min/avg/max) = 5.273 | 5.273 | 5.273 Mbytes
Time Temp Press Volume PotEng Econserve 
           0          300    2036.3253    10252.255   -2220.2982   -2200.4827 
         0.1    189.93043    2742.3929    10252.255   -2205.1788   -2200.4577 
         0.2    220.04448    3151.0213    10252.255   -2202.2029   -2200.4533 
         0.3    257.52059    3196.6547    10252.255    -2201.834   -2200.4554 
         0.4    239.01889    3048.8646    10252.255   -2198.8796   -2200.4523 
         0.5    288.66867    3331.0926    10252.255   -2201.1437   -2200.4552 
         0.6    307.93249    3594.8454    10252.255    -2201.801   -2200.4558 
         0.7    245.15941      3531.75    10252.255   -2197.3774   -2200.4481 
         0.8    305.73525    3378.1932    10252.255   -2201.1255    -2200.456 
         0.9    295.24571    3629.9573    10252.255   -2200.1557   -2200.4518 
           1    248.07057    3754.2814    10252.255   -2197.0657   -2200.4472 
         1.1    320.52894    3858.9591    10252.255   -2201.9813   -2200.4541 
         1.2    326.68515    3594.2323    10252.255    -2202.369    -2200.456 
         1.3    302.62361    3715.0189    10252.255   -2200.6016   -2200.4534 
         1.4    310.08738    3540.9295    10252.255   -2201.0422   -2200.4528 
         1.5    278.59662    3517.9605    10252.255   -2198.6665   -2200.4515 
         1.6    310.29432    3878.8391    10252.255   -2201.0517   -2200.4526 
         1.7    333.16833    3745.9617    10252.255    -2202.621   -2200.4556 
         1.8    316.94161    3639.4895    10252.255   -2201.4076   -2200.4551 
         1.9    288.02093     3711.325    10252.255   -2199.3459   -2200.4497 
           2    317.10179    3660.9889    10252.255   -2201.3404   -2200.4544 
         2.1     262.5936    3392.8317    10252.255   -2197.9193   -2200.4502 
         2.2    314.02918     3554.969    10252.255   -2201.1703   -2200.4551 
         2.3    278.53161    3588.4754    10252.255   -2199.1738   -2200.4518 
         2.4    265.41554    3529.9253    10252.255   -2198.2138   -2200.4515 
         2.5    265.49568    3532.5579    10252.255    -2198.029   -2200.4507 
         2.6    343.68111     3744.964    10252.255   -2203.3431   -2200.4575 
         2.7    259.01407    3886.3479    10252.255   -2197.5239   -2200.4467 
         2.8    297.51694    3830.4436    10252.255   -2200.0094   -2200.4517 
         2.9    316.45599    3658.5706    10252.255   -2201.4059   -2200.4559 
           3    311.65901    3673.7253    10252.255    -2200.923   -2200.4524 
         3.1    306.36797    3654.3571    10252.255   -2200.3528   -2200.4528 
         3.2    320.53412    3775.4225    10252.255   -2201.6053   -2200.4535 
         3.3     298.5411    3678.5213    10252.255   -2199.9941    -2200.453 
         3.4    312.56977    3277.9319    10252.255   -2201.4883   -2200.4566 
         3.5    284.59884    3578.6126    10252.255   -2199.3543   -2200.4498 
         3.6    282.76037    3823.7474    10252.255   -2199.1322     -2200.45 
         3.7    305.58988    3534.5918    10252.255   -2200.8631   -2200.4542 
         3.8    319.44889    3777.5498    10252.255   -2201.4191   -2200.4541 
         3.9     315.4878    3888.3087    10252.255   -2201.2049   -2200.4521 
           4    290.75418     3466.875    10252.255   -2199.7548   -2200.4526 
         4.1    288.69626    3793.8593    10252.255    -2199.383   -2200.4501 
         4.2    290.35504    3901.8734    10252.255   -2199.6113   -2200.4507 
         4.3    294.01648    3756.7276    10252.255   -2200.2103   -2200.4515 
         4.4    320.70202    3745.1047    10252.255   -2201.5255   -2200.4539 
         4.5    288.61016    3689.6952    10252.255   -2199.5815   -2200.4511 
         4.6    318.62357    3493.0612    10252.255    -2201.632   -2200.4548 
         4.7    286.02778    3667.1655    10252.255   -2199.2001   -2200.4515 
         4.8    307.00861     3680.337    10252.255   -2200.8522   -2200.4524 
         4.9    301.85625    3769.0858    10252.255   -2200.2738   -2200.4516 
           5    323.78394    3842.9503    10252.255   -2201.8515    -2200.454 
         5.1     304.0056    3489.4473    10252.255   -2200.6224   -2200.4542 
         5.2    333.20885    3787.9717    10252.255   -2202.7494   -2200.4548 
         5.3     292.4006    3467.5525    10252.255   -2199.9609   -2200.4527 
         5.4    298.71571    3700.1924    10252.255   -2200.3987   -2200.4523 
         5.5    306.30468    3955.3658    10252.255   -2200.7695   -2200.4516 
         5.6    303.28996    3875.8705    10252.255    -2200.572   -2200.4516 
         5.7    293.01056    3853.4056    10252.255   -2199.6751   -2200.4499 
         5.8    299.61046    3766.6151    10252.255   -2200.0781   -2200.4516 
         5.9    281.96706    3476.9877    10252.255   -2199.2354   -2200.4529 
           6     284.7703    3298.3471    10252.255   -2199.3056   -2200.4531 
         6.1    287.63999    3792.4529    10252.255   -2199.6362   -2200.4502 
         6.2    292.78999    3660.5472    10252.255    -2200.023   -2200.4522 
         6.3    299.89723    3584.7435    10252.255   -2200.2702   -2200.4528 
         6.4    292.25354    3656.0643    10252.255    -2199.839   -2200.4516 
         6.5    318.55155     3723.333    10252.255   -2201.4468   -2200.4543 
         6.6    297.09331    3794.1731    10252.255   -2200.2772   -2200.4517 
         6.7    301.70447    3950.9872    10252.255   -2200.4143   -2200.4501 
         6.8    317.41045     3914.317    10252.255   -2201.5322   -2200.4537 
         6.9    298.30311    3540.8946    10252.255   -2200.0354   -2200.4533 
           7    296.63224     3691.339    10252.255   -2200.1242   -2200.4522 
         7.1    294.12952    3572.7061    10252.255   -2199.7064    -2200.453 
         7.2    303.83761    3680.4915    10252.255   -2200.5202   -2200.4528 
         7.3    275.65541    3756.3439    10252.255   -2198.8889   -2200.4499 
         7.4     305.5474    3812.2243    10252.255   -2200.5493   -2200.4522 
         7.5    288.80656    3708.9916    10252.255   -2199.7182    -2200.451 
         7.6    304.63111    3729.9233    10252.255   -2200.4748   -2200.4524 
         7.7    293.15153    3493.8259    10252.255   -2199.6569   -2200.4541 
         7.8    311.97512    3677.4867    10252.255   -2201.3252   -2200.4536 
         7.9    278.46429    3721.9475    10252.255   -2199.0781   -2200.4499 
           8    280.92623    3660.9122    10252.255   -2199.0116   -2200.4501 
         8.1    311.17748    3914.7476    10252.255   -2201.0522   -2200.4518 
         8.2    306.04032    3793.5915    10252.255   -2200.7657   -2200.4531 
         8.3    327.23057    3984.5621    10252.255   -2201.7761   -2200.4532 
         8.4    334.80393    3961.0672    10252.255    -2202.848   -2200.4543 
         8.5    305.27465    3827.8165    10252.255   -2200.4716   -2200.4518 
         8.6    290.46517     3649.389    10252.255   -2199.5029   -2200.4508 
         8.7     305.7183    3741.8935    10252.255   -2200.5805   -2200.4522 
         8.8    281.04787    3686.0761    10252.255    -2198.862   -2200.4502 
         8.9    304.02004    3519.5478    10252.255    -2200.593   -2200.4535 
           9    295.41223    3677.9914    10252.255   -2200.2179   -2200.4522 
         9.1    275.69537    3621.2387    10252.255   -2198.8578   -2200.4504 
         9.2    297.08215     3800.257    10252.255   -2200.2773   -2200.4507 
         9.3    309.11783    3925.8658    10252.255   -2201.0473   -2200.4519 
         9.4    324.90543    4067.5772    10252.255   -2201.8382   -2200.4534 
         9.5    305.01257    3873.7943    10252.255   -2200.7327   -2200.4521 
         9.6    280.89719     3791.173    10252.255   -2199.1282   -2200.4494 
         9.7    318.83041    3721.8049    10252.255   -2201.5564   -2200.4549 
         9.8    307.77619    3750.9439    10252.255    -2200.952   -2200.4525 
         9.9    291.14083    3935.2488    10252.255   -2199.6671   -2200.4502 
          10    314.63843    3887.3262    10252.255   -2201.2911   -2200.4527 
        10.1    305.17884    3705.2682    10252.255   -2200.6189   -2200.4528 
        10.2    299.92644     3556.809    10252.255   -2200.2933    -2200.453 
        10.3    292.53773    3627.8159    10252.255   -2199.5762   -2200.4526 
        10.4    281.04147    3840.3595    10252.255   -2199.1681   -2200.4484 
        10.5    292.55986    3684.3298    10252.255   -2199.8994   -2200.4516 
        10.6    315.76115    3797.1267    10252.255   -2201.3956   -2200.4527 
        10.7    289.34587    3661.5923    10252.255   -2199.6533   -2200.4514 
        10.8    291.28038    3582.1786    10252.255   -2199.9062   -2200.4524 
        10.9    301.09418    3797.2815    10252.255   -2200.4077   -2200.4516 
          11    296.04199    3839.9958    10252.255   -2200.2557   -2200.4512 
        11.1    319.13708    3886.0618    10252.255   -2201.7501    -2200.453 
        11.2      290.461    3891.7858    10252.255   -2199.6025     -2200.45 
        11.3    303.30088    3748.3468    10252.255   -2200.4691   -2200.4526 
        11.4    298.84973    3732.9724    10252.255   -2200.0193   -2200.4522 
        11.5    309.80157    3746.2394    10252.255   -2200.6358   -2200.4528 
        11.6    293.00905    3565.5464    10252.255   -2199.9253   -2200.4525 
        11.7      290.691     3919.743    10252.255   -2199.7531   -2200.4494 
        11.8    274.62495    3719.6638    10252.255    -2198.737   -2200.4496 
        11.9    314.63091    3566.6236    10252.255   -2201.3556    -2200.455 
          12    312.54175    3833.1593    10252.255    -2201.145   -2200.4524 
        12.1    272.91929      3626.47    10252.255   -2198.4059   -2200.4496 
        12.2    297.72861    3797.7238    10252.255   -2200.2535   -2200.4513 
        12.3    306.00709    3773.6645    10252.255    -2200.644   -2200.4518 
        12.4    316.79301    3652.7149    10252.255   -2201.3498   -2200.4534 
        12.5    301.60039    3817.9775    10252.255   -2200.3514    -2200.451 
        12.6    306.18717     3991.524    10252.255   -2200.6371   -2200.4505 
        12.7    307.46454    3612.4728    10252.255   -2200.8657   -2200.4537 
        12.8     311.9138    3812.0761    10252.255   -2201.2809   -2200.4525 
        12.9    267.67125    3760.9848    10252.255   -2198.1522   -2200.4483 
          13     300.6652    3700.1337    10252.255    -2200.375    -2200.453 
        13.1    324.46342    3911.6221    10252.255   -2201.9353    -2200.454 
        13.2    300.60503    3820.9422    10252.255   -2200.1913   -2200.4514 
        13.3    300.61404    3892.6042    10252.255   -2200.1864   -2200.4503 
        13.4    284.61508    3763.8974    10252.255   -2199.3536   -2200.4514 
        13.5    295.75656    3706.5674    10252.255   -2199.9728   -2200.4517 
        13.6    305.11535    3810.3407    10252.255   -2200.8213   -2200.4524 
        13.7    308.39248    3949.6225    10252.255   -2200.9254   -2200.4517 
        13.8    299.43834    3844.7366    10252.255   -2200.3414   -2200.4512 
        13.9     319.6757    3863.1152    10252.255   -2201.5765    -2200.453 
          14    307.90853    3766.5524    10252.255   -2200.8995   -2200.4524 
        14.1    295.95661    3805.1416    10252.255   -2199.8722   -2200.4511 
        14.2    305.53158    3796.1124    10252.255   -2200.7329   -2200.4526 
        14.3    286.50224    3783.9774    10252.255   -2199.4735   -2200.4503 
        14.4    291.98628    3778.9507    10252.255   -2199.8348   -2200.4507 
        14.5    299.04412    3767.0943    10252.255   -2200.3168   -2200.4526 
        14.6    315.79983    3689.6235    10252.255    -2201.436   -2200.4538 
        14.7    306.94062    3802.2089    10252.255   -2200.8499   -2200.4527 
        14.8    307.55455    3818.3805    10252.255   -2200.9134   -2200.4529 
        14.9    297.23907    4016.8122    10252.255   -2200.2904   -2200.4495 
          15     302.3912     3860.724    10252.255   -2200.3887   -2200.4515 
        15.1    285.41671    3802.4931    10252.255   -2199.2835   -2200.4499 
        15.2    300.70444    3652.4757    10252.255   -2200.3277   -2200.4527 
        15.3    295.81158     3630.979    10252.255   -2199.9278    -2200.452 
        15.4    291.87442    3650.9674    10252.255   -2199.8664   -2200.4512 
        15.5    285.46347    3813.7237    10252.255   -2199.2005    -2200.449 
        15.6    310.75398    3724.1173    10252.255   -2201.1195   -2200.4535 
        15.7    288.48765    3717.1942    10252.255   -2199.5937   -2200.4507 
        15.8    307.10424    3769.4256    10252.255   -2200.8336   -2200.4518 
        15.9    311.71972    3726.3268    10252.255   -2201.0111   -2200.4524 
          16    299.29405    3741.8811    10252.255    -2200.509   -2200.4525 
        16.1    297.74211    3824.7233    10252.255   -2200.1941   -2200.4504 
        16.2    300.10569    3690.9669    10252.255   -2200.3176   -2200.4522 
        16.3    296.54312    3604.5802    10252.255   -2200.1218   -2200.4521 
        16.4    287.98992     3773.395    10252.255   -2199.3774   -2200.4501 
        16.5    304.88625    3732.7406    10252.255   -2200.6134   -2200.4521 
        16.6    298.06762    3891.9836    10252.255   -2200.1634   -2200.4515 
        16.7    308.74512    3986.4916    10252.255   -2200.8756   -2200.4506 
        16.8    299.63709    3736.8924    10252.255   -2200.2768   -2200.4519 
        16.9    299.03318    3943.8958    10252.255   -2200.1795   -2200.4507 
          17    296.28732    3673.4813    10252.255    -2199.984   -2200.4515 
        17.1    289.22052    3542.7108    10252.255   -2199.5253   -2200.4528 
        17.2    285.14444    3642.0756    10252.255   -2199.4528   -2200.4502 
        17.3    284.38473    3667.0619    10252.255   -2199.2359   -2200.4504 
        17.4    306.10138    3732.0672    10252.255   -2200.8164   -2200.4527 
        17.5    302.32058    4039.9601    10252.255   -2200.4477     -2200.45 
        17.6    319.80505    3975.3511    10252.255   -2201.6443   -2200.4521 
        17.7    316.48771    3911.5268    10252.255   -2201.3427    -2200.453 
        17.8    312.07279    4000.3332    10252.255    -2201.133   -2200.4514 
        17.9    305.65378    3779.0564    10252.255   -2200.7485   -2200.4525 
          18    285.39738    3890.9939    10252.255   -2199.3586   -2200.4497 
        18.1    287.87191    3852.0367    10252.255   -2199.4381   -2200.4496 
        18.2    302.45204    3796.7769    10252.255   -2200.4232   -2200.4524 
        18.3    297.57757    3758.3921    10252.255   -2200.1861    -2200.452 
        18.4     299.9907    3668.6228    10252.255   -2200.3468   -2200.4515 
        18.5    304.25419    3889.8695    10252.255     -2200.62   -2200.4524 
        18.6    281.95518    3820.2235    10252.255   -2199.1432   -2200.4497 
        18.7    310.55673    3934.3917    10252.255   -2200.9451   -2200.4518 
        18.8     301.5672    3924.6356    10252.255   -2200.4087   -2200.4512 
        18.9    302.88629    3821.2587    10252.255   -2200.4161    -2200.452 
          19    297.70305    3748.1618    10252.255   -2200.3473   -2200.4519 
        19.1    298.91211    3838.3443    10252.255    -2200.237   -2200.4506 
        19.2    300.64881    3691.9379    10252.255   -2200.4214   -2200.4522 
        19.3    321.37544    3925.7088    10252.255   -2201.7966   -2200.4536 
        19.4    289.41902    3948.9934    10252.255   -2199.6822   -2200.4496 
        19.5    290.76447    3818.7009    10252.255   -2199.7029   -2200.4504 
        19.6    312.94091    3810.3638    10252.255   -2201.1712   -2200.4533 
        19.7    296.82285    3737.8371    10252.255   -2199.9844   -2200.4525 
        19.8    302.35742    3885.8868    10252.255   -2200.4992   -2200.4512 
        19.9    307.64659    3856.9601    10252.255   -2200.8941   -2200.4521 
          20    299.77207    3742.9357    10252.255   -2200.2204   -2200.4523 
        20.1     282.0249    3803.5087    10252.255   -2199.2569   -2200.4506 
        20.2    294.51454    3809.2584    10252.255   -2199.9963   -2200.4514 
        20.3    283.70094    3811.8932    10252.255   -2199.2067   -2200.4504 
        20.4     304.5469    3902.9052    10252.255   -2200.7554    -2200.452 
        20.5    301.27909    3958.7716    10252.255   -2200.3503   -2200.4508 
        20.6     292.8292    3763.0543    10252.255   -2199.8018   -2200.4507 
        20.7    307.05904    3851.4165    10252.255   -2200.6823   -2200.4514 
        20.8     311.6723    3765.3939    10252.255   -2201.0423   -2200.4529 
        20.9    296.46917    3816.0445    10252.255   -2200.0302   -2200.4507 
          21    309.36162    3823.1664    10252.255   -2201.1036   -2200.4525 
        21.1    312.41274    3845.6821    10252.255   -2201.1572   -2200.4518 
        21.2    278.28433    3750.9337    10252.255   -2198.9931   -2200.4499 
        21.3    303.47496    3795.5256    10252.255   -2200.5044   -2200.4514 
        21.4    304.00642    3829.7643    10252.255   -2200.4693   -2200.4518 
        21.5    294.84423     3757.401    10252.255   -2199.9762   -2200.4523 
        21.6     300.4047    3859.4067    10252.255    -2200.369   -2200.4511 
        21.7    287.57597    3853.8012    10252.255   -2199.5006   -2200.4495 
        21.8    297.10003     3757.916    10252.255   -2200.0751   -2200.4516 
        21.9    297.08967    3901.9805    10252.255   -2200.0819   -2200.4509 
          22     283.8643    3834.8777    10252.255   -2199.1422   -2200.4495 
        22.1    313.08098    3817.9428    10252.255   -2201.2334   -2200.4536 
        22.2    309.98287    3738.1438    10252.255   -2201.1028   -2200.4529 
        22.3    298.23654    3838.7032    10252.255   -2200.2089   -2200.4511 
        22.4    300.99296    3903.9348    10252.255   -2200.3548   -2200.4513 
        22.5    314.09127    3928.0126    10252.255   -2201.1672   -2200.4518 
        22.6    301.51956    3856.2141    10252.255   -2200.3163   -2200.4511 
        22.7    295.70158    3830.1625    10252.255   -2199.9942   -2200.4512 
        22.8    291.61682     3621.626    10252.255   -2199.9131   -2200.4512 
        22.9    308.39269    3786.4921    10252.255   -2200.8542   -2200.4534 
          23    316.18383    3839.8787    10252.255   -2201.5609   -2200.4529 
        23.1    292.35112    4032.0915    10252.255   -2199.8395   -2200.4495 
        23.2    306.68567    4032.6824    10252.255   -2200.7438   -2200.4513 
        23.3    301.79045    3856.6487    10252.255   -2200.4441   -2200.4525 
        23.4    291.06571    3876.3681    10252.255   -2199.7549   -2200.4513 
        23.5     288.5847    3900.1056    10252.255   -2199.5268   -2200.4505 
        23.6    300.32513     3752.095    10252.255   -2200.3381   -2200.4524 
        23.7    318.63652    3903.0629    10252.255   -2201.6334   -2200.4526 
        23.8    282.68718    3772.5123    10252.255   -2199.1072   -2200.4499 
        23.9    303.43051    3700.5101    10252.255   -2200.5701   -2200.4526 
          24    290.54814    3852.8874    10252.255   -2199.6767   -2200.4506 
        24.1    300.00317    3807.8971    10252.255   -2200.2871   -2200.4515 
        24.2    304.97599    3907.9305    10252.255   -2200.7663    -2200.452 
        24.3    311.60519    4092.0501    10252.255   -2201.1295   -2200.4509 
        24.4    302.99283    3773.4786    10252.255   -2200.5438   -2200.4522 
        24.5    301.90112    3855.7613    10252.255    -2200.479    -2200.452 
        24.6    284.97678    3745.1122    10252.255   -2199.2311   -2200.4493 
        24.7    300.16885    3684.4386    10252.255   -2200.2912   -2200.4529 
        24.8    311.02288    3810.8334    10252.255   -2201.1721   -2200.4527 
        24.9    287.51248    3960.8891    10252.255   -2199.4404   -2200.4493 
          25    300.70685    3822.8708    10252.255   -2200.4305   -2200.4519 
        25.1    301.04283    3774.2712    10252.255   -2200.4138   -2200.4518 
        25.2    298.51016    3841.7008    10252.255   -2200.0552   -2200.4515 
        25.3    292.58262    3889.5998    10252.255   -2199.8733   -2200.4513 
        25.4    284.31682    3868.0436    10252.255   -2199.3521   -2200.4502 
        25.5    295.25576    3786.8755    10252.255   -2199.9578   -2200.4511 
        25.6    297.48718    3820.6506    10252.255   -2200.1979   -2200.4514 
        25.7    299.09914    3870.3629    10252.255   -2200.1996   -2200.4505 
        25.8    308.11787    3893.5853    10252.255    -2200.811   -2200.4522 
        25.9    323.82652    3937.6696    10252.255   -2202.0093   -2200.4534 
          26    301.24244    3880.8513    10252.255   -2200.4581   -2200.4511 
        26.1     307.5964    3909.1156    10252.255   -2200.7709   -2200.4523 
        26.2    299.69697    3857.1665    10252.255   -2200.3081   -2200.4513 
        26.3    303.96455    3982.3308    10252.255    -2200.426   -2200.4507 
        26.4    298.88309     3853.581    10252.255   -2200.1669   -2200.4512 
        26.5    299.91492     3813.116    10252.255   -2200.2565   -2200.4518 
        26.6    291.24007    3784.3192    10252.255   -2199.8605   -2200.4515 
        26.7    288.07591    3824.0579    10252.255   -2199.6179   -2200.4506 
        26.8    289.59197    3948.0827    10252.255   -2199.6226   -2200.4499 
        26.9    302.67988     3952.743    10252.255   -2200.5858   -2200.4522 
          27    300.94304    3782.4512    10252.255   -2200.3737   -2200.4521 
        27.1    297.21775    3856.9055    10252.255   -2200.1602   -2200.4512 
        27.2    291.43557    3863.6355    10252.255   -2199.7279   -2200.4503 
        27.3    319.16051    3928.3888    10252.255   -2201.5572   -2200.4532 
        27.4    304.19588    3935.2468    10252.255   -2200.5952   -2200.4508 
        27.5    308.06464    4000.8666    10252.255    -2200.854   -2200.4516 
        27.6    315.13982    3853.2486    10252.255    -2201.279   -2200.4528 
        27.7    297.57353      3840.32    10252.255   -2200.2053   -2200.4509 
        27.8    303.60504    3836.6658    10252.255   -2200.5294   -2200.4513 
        27.9    308.06079    3871.1999    10252.255   -2200.8477   -2200.4524 
          28     279.7491    3819.2871    10252.255   -2199.1042   -2200.4495 
        28.1    300.12746    3898.2279    10252.255   -2200.2233    -2200.451 
        28.2    306.46175    3771.2456    10252.255   -2200.7308   -2200.4526 
        28.3    279.84855    3780.2862    10252.255   -2199.0453     -2200.45 
        28.4    300.68897    3882.6828    10252.255   -2200.3986   -2200.4522 
        28.5    307.82217    3798.7343    10252.255   -2200.9051   -2200.4518 
        28.6    299.91359    3913.0376    10252.255   -2200.4092   -2200.4513 
        28.7    319.96435    3981.4096    10252.255   -2201.6109   -2200.4531 
        28.8    289.15024    3859.1254    10252.255   -2199.7044     -2200.45 
        28.9    304.09053    3872.2321    10252.255   -2200.6495   -2200.4516 
          29    300.39502    3711.5479    10252.255    -2200.198   -2200.4514 
        29.1     299.2871     3778.727    10252.255   -2200.2892   -2200.4513 
        29.2    292.38859     3924.299    10252.255   -2199.7791   -2200.4502 
        29.3    310.31222    3775.4225    10252.255   -2200.9572   -2200.4518 
        29.4    294.76001    3771.7594    10252.255   -2199.9447   -2200.4503 
        29.5    294.92699    3866.9877    10252.255    -2200.009   -2200.4506 
        29.6    283.80878    3759.6449    10252.255   -2199.2312   -2200.4497 
        29.7    302.03966     3871.769    10252.255   -2200.5176   -2200.4508 
        29.8    310.36443    3818.8225    10252.255    -2201.059   -2200.4528 
        29.9    300.03548    3775.4504    10252.255   -2200.3372   -2200.4513 
          30    293.97906    3859.8638    10252.255   -2199.9879   -2200.4504 
        30.1    297.78762    3763.6612    10252.255   -2200.1109   -2200.4511 
        30.2     306.5839    3784.1283    10252.255   -2200.7386   -2200.4522 
        30.3    296.50429    3814.8969    10252.255   -2200.1564   -2200.4514 
        30.4    296.17008     3832.747    10252.255   -2200.0125   -2200.4508 
        30.5    303.06693    3913.6414    10252.255   -2200.5693   -2200.4507 
        30.6    296.53332    3857.5207    10252.255    -2200.076   -2200.4509 
        30.7    303.82525    3802.8636    10252.255   -2200.5479   -2200.4514 
        30.8    307.56626    3805.1509    10252.255   -2200.7661   -2200.4521 
        30.9    294.21123    3802.3372    10252.255   -2199.9262   -2200.4506 
          31    295.57844    3819.5818    10252.255   -2199.9824   -2200.4506 
        31.1    311.65744    3872.4197    10252.255   -2201.1249   -2200.4525 
        31.2    291.03388    3725.4307    10252.255   -2199.6698   -2200.4507 
        31.3    307.88334    3880.5315    10252.255   -2200.8128   -2200.4517 
        31.4    290.09631    3851.1327    10252.255   -2199.6753   -2200.4501 
        31.5    302.93913    3876.5349    10252.255   -2200.5382   -2200.4513 
        31.6    311.30272    3858.9186    10252.255   -2201.1411   -2200.4525 
        31.7    301.24755    3877.4613    10252.255   -2200.3996    -2200.451 
        31.8    290.73536    3849.1057    10252.255   -2199.7305   -2200.4506 
        31.9    311.84606    3863.1728    10252.255   -2201.0831    -2200.452 
          32    301.59257    3851.2223    10252.255   -2200.3423   -2200.4518 
        32.1    299.27565    3850.2528    10252.255    -2200.375    -2200.451 
        32.2    296.28359    3796.9168    10252.255   -2200.0973   -2200.4509 
        32.3    295.94302    3798.1851    10252.255   -2200.0458   -2200.4506 
        32.4    312.23573    3866.8295    10252.255   -2201.0937    -2200.452 
        32.5    313.33199    3939.9438    10252.255   -2201.2192   -2200.4523 
        32.6    293.94605    3870.5707    10252.255   -2199.9011   -2200.4498 
        32.7    290.49279     3863.662    10252.255   -2199.8085   -2200.4501 
        32.8     297.7397    3777.1246    10252.255   -2200.0192   -2200.4507 
        32.9    299.95764    3723.9356    10252.255    -2200.373   -2200.4517 
          33    305.15272    3916.7875    10252.255    -2200.693   -2200.4516 
        33.1    300.90089    3861.3909    10252.255   -2200.3632   -2200.4505 
        33.2    286.20772    3789.9243    10252.255   -2199.4359   -2200.4499 
        33.3    306.70041    3856.9852    10252.255   -2200.7839   -2200.4521 
        33.4    295.43085    3794.5305    10252.255   -2200.0676   -2200.4515 
        33.5    301.80531    3834.3711    10252.255   -2200.4988   -2200.4518 
        33.6    307.56319    3976.1908    10252.255   -2200.8504   -2200.4518 
        33.7    303.74166    3849.9667    10252.255   -2200.6036   -2200.4512 
        33.8    297.89545    3727.0519    10252.255   -2200.2238   -2200.4517 
        33.9      293.765    3864.5511    10252.255   -2199.8677   -2200.4499 
          34    292.83525    3696.2367    10252.255   -2199.7768   -2200.4515 
        34.1    305.33895    3792.6268    10252.255   -2200.7614   -2200.4523 
        34.2    297.29378    3896.9871    10252.255   -2200.0852   -2200.4502 
        34.3    298.31434    3905.0238    10252.255   -2200.2785   -2200.4502 
        34.4     301.5706    3914.6479    10252.255   -2200.3822    -2200.451 
        34.5    305.70866    3779.7844    10252.255    -2200.743   -2200.4521 
        34.6    291.70202    3771.6648    10252.255   -2199.7158   -2200.4505 
        34.7    295.92785    3833.6778    10252.255   -2200.0587   -2200.4506 
        34.8    298.98906    3813.9601    10252.255    -2200.243    -2200.451 
        34.9    301.35663    3829.2239    10252.255   -2200.4698   -2200.4511 
          35    297.29764    3820.5253    10252.255   -2200.0821   -2200.4509 
        35.1    296.99268    3835.6197    10252.255   -2200.0758   -2200.4511 
        35.2     305.2149    3840.5928    10252.255   -2200.6559   -2200.4516 
        35.3    299.80236    3861.5603    10252.255   -2200.4137   -2200.4517 
        35.4    300.08801    3837.8624    10252.255   -2200.3061   -2200.4515 
        35.5    297.74028    3863.5073    10252.255    -2200.218   -2200.4514 
        35.6    298.25867    3864.2992    10252.255    -2200.188   -2200.4509 
        35.7    304.45691    3891.7279    10252.255   -2200.5878   -2200.4508 
        35.8    301.21452    3838.5038    10252.255   -2200.2851   -2200.4514 
        35.9    301.11978    3805.3643    10252.255   -2200.4475   -2200.4522 
          36     298.0124    3883.4126    10252.255   -2200.1992   -2200.4499 
        36.1    293.44751    3826.2325    10252.255   -2199.9037   -2200.4507 
        36.2    306.90891    3783.0636    10252.255    -2200.756   -2200.4521 
        36.3    301.62552     3930.117    10252.255   -2200.4152   -2200.4499 
        36.4     293.7174    3747.3952    10252.255   -2199.8463   -2200.4508 
        36.5    306.42289    3846.4582    10252.255    -2200.806   -2200.4514 
        36.6    293.38674    3821.5828    10252.255   -2199.7797   -2200.4501 
        36.7    309.68059    3769.2093    10252.255   -2201.0341   -2200.4534 
        36.8    292.48113    3910.7968    10252.255   -2199.9222   -2200.4496 
        36.9    302.94117     3854.317    10252.255   -2200.5219   -2200.4506 
          37    296.99451    3809.7363    10252.255   -2200.1398   -2200.4518 
        37.1    307.13775    3858.0577    10252.255   -2200.8551   -2200.4517 
        37.2    302.59765    3821.9545    10252.255   -2200.4312   -2200.4515 
        37.3    290.92049    3886.6955    10252.255   -2199.7943   -2200.4505 
        37.4    305.32343    3875.1382    10252.255   -2200.6148   -2200.4509 
        37.5    298.75175    3804.5427    10252.255   -2200.1929   -2200.4509 
        37.6    300.59557    3818.6509    10252.255   -2200.2815   -2200.4506 
        37.7    295.56589    3775.8863    10252.255   -2200.0143    -2200.451 
        37.8    299.50958    3756.3486    10252.255   -2200.2394    -2200.451 
        37.9    310.55178    3694.3771    10252.255   -2201.1121   -2200.4528 
          38    298.89838    3813.0858    10252.255   -2200.2316   -2200.4506 
        38.1    285.56494    3794.6069    10252.255   -2199.4143    -2200.449 
        38.2    303.27918    3813.0241    10252.255    -2200.557   -2200.4511 
        38.3     304.8063    3796.2952    10252.255    -2200.675   -2200.4507 
        38.4     302.0818    3780.0651    10252.255   -2200.4672   -2200.4515 
        38.5    301.51967    3805.8088    10252.255    -2200.465   -2200.4514 
        38.6    303.28766    3816.2159    10252.255   -2200.5577   -2200.4514 
        38.7    297.35881    3800.4287    10252.255   -2200.2222   -2200.4502 
        38.8    296.61132    3768.4966    10252.255    -2199.995   -2200.4505 
        38.9    292.03288    3803.1236    10252.255   -2199.8005   -2200.4505 
          39    298.90173    3737.2196    10252.255   -2200.2568   -2200.4514 
        39.1     311.4778    3809.7219    10252.255   -2201.0869   -2200.4522 
        39.2    292.31072    3840.8992    10252.255   -2199.7868   -2200.4496 
        39.3    293.25457    3800.7861    10252.255   -2199.8051   -2200.4501 
        39.4    302.23274    3767.4652    10252.255   -2200.4386   -2200.4517 
        39.5    293.14421    3682.1508    10252.255   -2199.9044   -2200.4503 
        39.6    300.98739     3711.552    10252.255   -2200.3148   -2200.4518 
        39.7    294.78323    3685.8972    10252.255   -2200.0606    -2200.451 
        39.8    300.83232    3854.9768    10252.255   -2200.2979   -2200.4509 
        39.9    302.75506     3884.395    10252.255   -2200.5488   -2200.4511 
          40    307.25036    3789.0712    10252.255   -2200.7661   -2200.4519 
        40.1      309.495    3796.1472    10252.255   -2200.9556   -2200.4514 
        40.2    311.26117    3790.0518    10252.255   -2201.0566    -2200.452 
        40.3     297.1375    3750.3703    10252.255   -2200.2279   -2200.4507 
        40.4    311.18964    3857.5399    10252.255   -2201.0278   -2200.4519 
        40.5    297.72282    3699.1668    10252.255   -2200.2219   -2200.4515 
        40.6    287.01539    3704.8288    10252.255   -2199.4462   -2200.4495 
        40.7    286.58947    3813.7903    10252.255    -2199.298   -2200.4493 
        40.8    303.22918     3721.533    10252.255   -2200.5545    -2200.452 
        40.9    303.25459    3827.2873    10252.255   -2200.5363   -2200.4513 
          41    311.01825    3829.0418    10252.255   -2200.9602   -2200.4516 
        41.1    298.79055    3747.1144    10252.255    -2200.309   -2200.4518 
        41.2    296.38117    3854.1353    10252.255   -2200.0716   -2200.4497 
        41.3    299.57052    3733.5203    10252.255   -2200.2683   -2200.4505 
        41.4    297.94108    3752.5525    10252.255   -2200.1681   -2200.4508 
        41.5    305.93674    3733.6062    10252.255   -2200.7426   -2200.4516 
        41.6    301.99604    3651.4445    10252.255   -2200.4773   -2200.4517 
        41.7     297.9637    3742.8663    10252.255   -2200.2762   -2200.4503 
        41.8    305.71077    3814.5021    10252.255   -2200.5858   -2200.4503 
        41.9     301.6223    3715.2647    10252.255   -2200.4564   -2200.4516 
          42    303.69469    3874.2536    10252.255    -2200.604   -2200.4505 
        42.1    303.81415    3757.8262    10252.255   -2200.6136   -2200.4509 
        42.2    311.83704    3663.8513    10252.255   -2201.1167   -2200.4527 
        42.3    287.76622    3789.4742    10252.255   -2199.5847   -2200.4495 
        42.4     297.1051    3743.3346    10252.255   -2200.0705   -2200.4505 
        42.5    301.77531    3754.2502    10252.255   -2200.4675   -2200.4514 
        42.6     295.8176    3792.3824    10252.255   -2200.0227   -2200.4506 
        42.7    295.37168    3631.6744    10252.255   -2200.0058   -2200.4508 
        42.8    299.92415    3708.9657    10252.255   -2200.3381   -2200.4512 
        42.9    295.50357    3701.3366    10252.255   -2200.0436   -2200.4506 
          43    303.20867    3723.2414    10252.255   -2200.4728   -2200.4508 
        43.1    301.08371    3752.4383    10252.255   -2200.4311   -2200.4512 
        43.2    297.84071    3724.8538    10252.255   -2200.1073   -2200.4505 
        43.3    294.09064    3752.1067    10252.255   -2199.9551   -2200.4501 
        43.4    302.82318     3713.939    10252.255    -2200.485   -2200.4509 
        43.5    307.66814    3724.0978    10252.255   -2200.8904   -2200.4519 
        43.6    307.10057    3768.7576    10252.255   -2200.8453   -2200.4507 
        43.7    295.85068    3748.1494    10252.255   -2200.0448   -2200.4505 
        43.8    303.02167    3655.6332    10252.255   -2200.5425   -2200.4518 
        43.9    290.51194    3652.6163    10252.255   -2199.6694   -2200.4501 
          44    289.40102    3803.3063    10252.255   -2199.5052   -2200.4496 
        44.1    307.98622    3744.6433    10252.255   -2200.8323   -2200.4518 
        44.2     300.4286    3849.7071    10252.255    -2200.356   -2200.4509 
        44.3    297.07182    3707.3194    10252.255   -2200.1051     -2200.45 
        44.4    309.84456    3700.9765    10252.255    -2200.979   -2200.4525 
        44.5     280.3402    3741.8718    10252.255   -2198.9954    -2200.449 
        44.6    295.80291    3744.0587    10252.255   -2199.9957    -2200.451 
        44.7    308.47239    3718.2004    10252.255    -2200.958   -2200.4519 
        44.8    295.50192    3740.8456    10252.255   -2199.9794   -2200.4505 
        44.9    299.60335    3763.0885    10252.255    -2200.296   -2200.4509 
          45    313.03916    3786.9018    10252.255   -2201.1381   -2200.4519 
        45.1    293.49651    3834.7675    10252.255     -2199.84   -2200.4495 
        45.2    309.66537    3832.9045    10252.255   -2200.9304   -2200.4509 
        45.3    316.33591    3733.8577    10252.255   -2201.5088   -2200.4534 
        45.4    300.89178    3817.2207    10252.255   -2200.4525   -2200.4508 
        45.5    290.85332    3771.0757    10252.255   -2199.7707   -2200.4494 
        45.6    306.71487     3793.192    10252.255   -2200.6505   -2200.4517 
        45.7    294.24141    3759.5684    10252.255   -2199.9236   -2200.4508 
        45.8    293.63159    3685.5981    10252.255   -2199.9325   -2200.4502 
        45.9    305.45076    3728.0846    10252.255    -2200.633   -2200.4523 
          46    285.33964    3793.4182    10252.255   -2199.3718   -2200.4497 
        46.1    301.99829    3700.7358    10252.255    -2200.447   -2200.4515 
        46.2    300.66805    3771.5085    10252.255   -2200.3505   -2200.4508 
        46.3    296.53035    3709.2131    10252.255   -2200.0738   -2200.4504 
        46.4    311.64904    3792.8323    10252.255   -2201.1279   -2200.4523 
        46.5    298.27565    3766.2625    10252.255    -2200.224   -2200.4508 
        46.6     297.3438    3802.3342    10252.255   -2200.1837   -2200.4496 
        46.7    307.72802     3772.373    10252.255   -2200.8052   -2200.4519 
        46.8    305.66593    3844.0716    10252.255   -2200.6795   -2200.4509 
        46.9    294.45733    3836.5447    10252.255   -2199.9437   -2200.4496 
          47    313.87921    3776.8339    10252.255   -2201.2227   -2200.4527 
        47.1    294.12412    3733.1744    10252.255   -2199.9985   -2200.4507 
        47.2    292.90889    3737.3685    10252.255   -2199.8281   -2200.4501 
        47.3    299.56349    3752.1939    10252.255   -2200.3073    -2200.451 
        47.4    291.44103    3740.4799    10252.255   -2199.7033   -2200.4504 
        47.5     302.4548    3691.6144    10252.255   -2200.5036   -2200.4514 
        47.6    290.08229    3785.1335    10252.255   -2199.6736   -2200.4508 
        47.7    298.85169    3723.9047    10252.255   -2200.2654   -2200.4512 
        47.8    297.05514    3810.4844    10252.255   -2200.0571   -2200.4507 
        47.9    301.12039    3744.7206    10252.255   -2200.4057   -2200.4516 
          48    303.08547    3822.1107    10252.255   -2200.6064   -2200.4507 
        48.1    293.34074    3747.6207    10252.255   -2199.7984   -2200.4504 
        48.2    307.70333    3737.8705    10252.255   -2200.7903   -2200.4514 
        48.3    303.34998    3837.4888    10252.255   -2200.5148   -2200.4506 
        48.4    308.94738    3819.7023    10252.255   -2200.9266   -2200.4514 
        48.5    303.53469    3876.0937    10252.255   -2200.5829   -2200.4511 
        48.6    293.80017    3777.6762    10252.255   -2199.8968   -2200.4498 
        48.7    305.01331     3671.699    10252.255   -2200.6257   -2200.4527 
        48.8    307.37124    3799.3917    10252.255   -2200.8604   -2200.4521 
        48.9    290.24268    3722.2507    10252.255   -2199.6441   -2200.4495 
          49    297.77735    3766.5574    10252.255    -2200.127   -2200.4515 
        49.1    297.10991    3711.3727    10252.255   -2200.1557   -2200.4507 
        49.2    293.13629    3768.9427    10252.255   -2199.8142   -2200.4505 
        49.3    309.87985    3806.1533    10252.255   -2200.9667   -2200.4528 
        49.4    304.95771    3816.2409    10252.255   -2200.6622    -2200.451 
        49.5    296.97311    3808.6214    10252.255   -2200.1434   -2200.4506 
        49.6    307.00973    3797.4813    10252.255   -2200.8171   -2200.4513 
        49.7    298.85174    3788.7308    10252.255   -2200.2318   -2200.4511 
        49.8    293.36703    3770.2439    10252.255   -2199.8738   -2200.4504 
        49.9    304.13452    3809.2927    10252.255   -2200.6192   -2200.4513 
          50    306.55614    3844.6024    10252.255   -2200.7235   -2200.4514 
Loop time of 74.168 on 1 procs for 50000 steps with 512 atoms

Performance: 58.246 ns/day, 0.412 hours/ns, 674.146 timesteps/s
99.7% CPU use with 1 MPI tasks x no OpenMP threads

MPI task timing breakdown:
Section |  min time  |  avg time  |  max time  |%varavg| %total
---------------------------------------------------------------
Pair    | 71.814     | 71.814     | 71.814     |   0.0 | 96.83
Neigh   | 0          | 0          | 0          |   0.0 |  0.00
Comm    | 0.45214    | 0.45214    | 0.45214    |   0.0 |  0.61
Output  | 1.0174     | 1.0174     | 1.0174     |   0.0 |  1.37
Modify  | 0.66084    | 0.66084    | 0.66084    |   0.0 |  0.89
Other   |            | 0.2232     |            |       |  0.30

Nlocal:        512.000 ave         512 max         512 min
Histogram: 1 0 0 0 0 0 0 0 0 0
Nghost:        1450.00 ave        1450 max        1450 min
Histogram: 1 0 0 0 0 0 0 0 0 0
Neighs:         0.00000 ave           0 max           0 min
Histogram: 1 0 0 0 0 0 0 0 0 0
FullNghs:      17408.0 ave       17408 max       17408 min
Histogram: 1 0 0 0 0 0 0 0 0 0

Total # of neighbors = 17408
Ave neighs/atom = 34.000000
Neighbor list builds = 0
Dangerous builds = 0
undump          1
unfix           4
unfix		5

write_data S300K.dat
System init for write_data ...
write_restart S300K.rest
System init for write_restart ...
Total wall time: 0:01:14
