LAMMPS data file via write_data, version 29 Sep 2021, timestep = 300000

512 atoms
1 atom types

-0.024760164491771874 21.748760164492424 xlo xhi
-0.024760164491771874 21.748760164492424 ylo yhi
-0.024760164491771874 21.748760164492424 zlo zhi

Masses

1 28.0855

Atoms # atomic

404 1 6.8685834089122295 18.534676904926336 3.1123425755052043 2 -1 1
444 1 21.377741195242884 3.9978092026971703 20.73929499232544 0 0 0
421 1 4.664757251538656 19.264039335473328 3.7223410477593446 1 0 1
507 1 6.790613615580217 2.604189680142375 1.7612403259743263 2 0 0
471 1 9.960378006454146 20.342457076313252 3.37987102962525 0 0 0
358 1 7.2933942553407345 0.2432822483288578 2.0099714872477557 -2 0 -1
94 1 17.14755439979467 4.158954895095756 15.46628910573857 1 0 0
301 1 12.777692466459461 0.7144345812734777 2.0415284214569676 -1 0 0
398 1 19.22434678850881 3.359159891995916 19.529716741799838 -1 0 0
373 1 16.9378667187433 4.955314523031331 3.7064043025055584 0 1 0
87 1 19.958181385957708 3.377259037636495 0.9641457215962851 -1 1 1
213 1 3.4679987637518077 0.08507284137399296 3.6398986148810653 0 1 0
29 1 12.046726539754564 2.8719938333139816 1.091970543262455 2 0 -1
185 1 9.188285477793587 3.4984834329630243 1.2627937016108854 0 0 1
463 1 13.412053950770815 3.0366179005109513 20.67454814095658 -1 0 0
431 1 12.848170534414814 8.864036986579423 1.9177855580579986 1 1 1
351 1 15.640434995832846 4.259755654867891 20.555563527513343 -1 1 -1
262 1 21.44816539212431 3.6409771770700035 17.53801819392791 -1 3 -2
356 1 16.757266398884042 6.095145091961085 17.838800790341168 -2 0 -1
190 1 16.158561054945892 7.5858228034281225 5.160205789912671 1 -1 0
475 1 0.13577047299290615 4.523548966582497 2.0549603933680554 1 1 1
217 1 5.260827300534646 5.1915694120867935 2.6934170880943737 1 0 0
350 1 7.035767149907897 7.836054899446101 3.4096012296114906 0 -1 1
390 1 10.238517211911429 11.071641874902324 2.785919175534284 -2 0 1
68 1 14.38626005071536 10.78826929221475 19.05218561635227 0 -1 -2
216 1 14.557629528585021 9.681270469088828 3.852499527021061 -1 0 1
506 1 9.019881378947428 9.134957266013682 2.34231731935414 0 0 2
422 1 13.747419289117742 8.525365035694671 5.9974227922691234 0 -1 2
494 1 14.720537940798485 8.008361086455762 0.26252066075199293 -1 1 2
296 1 19.02758180641056 8.980830592050538 6.828024292817105 -1 0 1
318 1 17.426325042504693 8.550804815277846 1.2544692800307982 -2 0 1
271 1 3.269375008183394 9.044447461713032 0.666134065285025 0 -1 0
72 1 18.58200757811975 8.389412783087572 20.4302333376718 -1 1 0
297 1 19.689529997099427 6.039378472478716 0.0038813006291554264 -1 0 0
42 1 7.587647714277899 5.488633932387136 0.4496093281810908 0 0 1
290 1 5.6795969826389365 8.434426687917188 1.1617199337182311 -2 -1 0
321 1 12.190185793437601 13.150768094617149 0.4625526352164712 0 0 0
39 1 8.783383547323455 12.902021407747215 3.6420711350948713 0 -1 1
490 1 6.7720260259304546 13.56000089927019 20.24461282381276 0 0 1
119 1 12.382901820081136 9.203521633186723 20.113844388952522 1 1 0
124 1 14.408523265656724 12.63333723736999 20.53761928859634 0 1 0
379 1 11.907082530192007 10.84522545047978 0.32014402507942985 -1 -1 1
314 1 16.297728260932253 11.158880628690197 2.449673238478683 -1 0 0
50 1 19.054217826750012 9.682377862955104 18.658541066550974 0 0 -1
148 1 19.64544415389622 13.59632041472938 21.43945511684712 0 0 -1
391 1 4.012423499968645 11.183298649305703 1.6129077736657715 1 -2 1
181 1 5.676473448658471 8.408794630230268 19.941229180706983 1 0 1
71 1 8.644977690039044 15.251598942491087 20.545196989938262 0 2 -1
258 1 14.111853609504276 17.287472542778616 20.664257918080025 1 -1 1
279 1 6.907762079720433 15.671614693713801 0.7516566867804789 0 -1 0
387 1 17.09108215092084 11.071474119547313 0.2786739808068368 0 0 0
274 1 19.92246986017227 14.800440529362245 1.9684362042901682 -1 0 1
46 1 21.21729283418503 8.579647369793898 0.04336648877244817 -3 0 -2
443 1 1.2238984141856153 17.58299132441296 3.61303986740462 1 0 2
498 1 3.683285150195344 13.483492701776154 4.268509938463278 0 0 1
495 1 0.8005984560944469 10.285746634492384 2.172381192650971 0 -1 0
128 1 8.40604318107553 16.75013577343084 3.833808851529337 1 0 0
333 1 6.633246891036616 12.566261853548086 3.4327168060482864 0 1 1
58 1 16.990520726544986 16.759649922327448 19.705860683256333 1 -1 -1
255 1 20.918631190507057 1.3812550400702222 21.532629152573925 0 1 0
311 1 19.32572203055779 16.39953336983902 0.4461893902628405 0 -2 0
267 1 19.442230267054285 17.289835854879335 3.6990570443466573 0 -1 0
122 1 0.4990729132053391 18.242445448803338 0.8612739385985887 1 0 0
376 1 2.134938449865383 15.892444787094389 0.6027973532313965 1 0 0
175 1 2.4282748432578827 15.586809092123362 2.851361428122021 1 0 -1
270 1 5.252473840505016 15.052025719439163 2.957710987904049 1 0 -1
193 1 9.156922311848552 19.01313915804635 21.496271246107323 2 0 0
27 1 10.915370938961356 20.44612277112524 0.8737119719316536 0 0 0
416 1 9.399221636250395 16.010882768488074 1.5584419351948966 0 -1 0
64 1 13.229003041460373 17.098799815730366 2.1252595389424096 1 -1 -1
278 1 14.126495138875548 16.90555982380267 4.883450183181448 0 -1 -1
384 1 19.996162192737117 20.235982308747523 2.6877826846977295 0 1 1
264 1 20.084134540809046 1.9554677645443317 2.8840459353758967 -1 1 2
445 1 1.0189373707759752 0.7095248986229977 4.285211653681706 1 2 1
104 1 4.817139552586686 19.8552766253692 7.532736925203942 0 0 0
224 1 9.708507380855849 0.3478823261859084 6.8090525377213345 0 2 -1
260 1 10.069363510869657 1.0170567544963192 3.135243263576242 -2 0 -1
125 1 7.956215812931999 2.5858445000929877 3.6803074269323006 0 0 0
263 1 13.59815069172981 20.942337079535832 5.544135417733675 0 -2 0
74 1 17.820396277872554 20.556613314883613 2.403005788362673 1 0 -2
477 1 11.348347298520093 0.358504348228793 4.96041632858546 1 2 1
261 1 15.166193193787276 5.199418017485608 6.009116152801548 -1 0 0
394 1 18.49716104598876 0.5082135623919524 0.6129494647186133 -1 -1 1
40 1 17.848563999020648 2.6669156412419777 3.678527609404649 1 0 0
80 1 21.25747798736851 5.6137782927913795 4.882897009733116 -3 0 0
136 1 21.63655092451615 3.317745487819954 4.329660908248916 -1 0 -1
251 1 4.922049073469041 0.12749205782775225 5.638798735125456 2 2 -1
92 1 6.803736346508616 1.2677330557382556 8.077917479203265 0 2 0
478 1 4.252818729658364 2.665522472551585 6.316886145401978 1 1 1
225 1 4.604528046289209 2.311191639349998 2.7214829551687796 0 1 1
331 1 5.476685443087629 3.940878076587811 4.794491707637296 1 1 2
385 1 10.877213637048978 7.519319241629317 1.4401570140080453 -1 -1 1
192 1 10.630189259204162 5.3187951755428164 2.683948899392334 0 0 0
84 1 12.92702692142338 3.7048969431370438 3.0803381853155067 1 1 0
154 1 15.020405136399226 2.7263223844370135 2.330237245062199 2 1 1
409 1 13.103426361826743 6.106881822446614 2.7334904651198353 -1 -1 1
501 1 18.78606190866872 5.8794953359625906 5.185598394505609 0 2 1
81 1 0.9446926531104763 5.122895261134148 7.434201685851939 1 0 -1
177 1 2.2764675455775505 4.905291465742829 20.86751339785014 0 1 0
162 1 2.413127371417696 3.7988119484375105 4.309242577043802 0 0 0
367 1 2.593365515633483 6.35787225307117 8.9075422176728 0 0 0
491 1 6.513171977637832 6.859937722878714 7.498919596894835 0 0 1
67 1 12.10238888656993 6.303956145622306 11.805133774591487 1 -1 -1
451 1 12.498395575757625 6.857539412641022 4.887944932401541 -2 0 1
180 1 18.872020357564324 7.557929058563419 3.3454184096400716 0 1 0
100 1 19.941221498995787 7.42842696924152 11.149991767769658 -2 0 0
467 1 21.355478878708688 7.002506095571557 2.028961483487859 -1 1 1
382 1 0.6629695300614042 12.537269652609984 5.60572956260143 1 1 -1
56 1 2.862122190237478 5.465467840266802 1.7297475592389269 2 0 0
109 1 9.97177831590073 7.577935008216689 4.366845068654961 0 1 0
360 1 9.450381345973717 13.105871469441148 6.273488886450685 0 0 1
407 1 12.738585020343661 11.227789067992632 3.579782796176007 1 0 1
462 1 16.124790953518023 15.251248102423755 21.52246418070077 -1 -2 -1
440 1 17.416889368184364 11.739260827476635 5.483340624840576 -1 0 0
107 1 20.4567950084422 11.267789516225458 2.8299241160680038 -2 0 -1
117 1 15.30405079134178 13.288357348568711 1.872159059036549 0 1 -1
73 1 0.9232277400032926 7.524725412619861 4.5876067176706785 1 1 0
428 1 2.456307445095489 7.708754416470758 2.4301702510344514 0 0 2
383 1 1.327037722904078 10.193563237365543 4.528155535533372 1 0 2
48 1 4.484453813312715 10.98733205596821 4.310399082194036 2 1 1
403 1 20.417816089740185 14.524501605834667 7.798793083207414 -1 -1 1
493 1 6.4764512862162285 10.526664609472386 0.7798348803528288 -1 0 0
397 1 5.965878333637001 15.855460751301495 4.934234922473111 0 -1 0
51 1 6.59220895716962 11.088435818477837 5.56878401597432 1 0 1
174 1 10.79835466423643 13.902102977632595 2.4471171851044553 0 -1 0
269 1 17.21661450236398 15.8918506499285 2.0373176451124246 -1 -1 1
218 1 14.204494614712047 13.89941296172664 6.916952430499373 -1 0 0
18 1 15.520389579173894 14.603914983491336 4.907523601597758 -1 0 1
20 1 21.331962341222557 17.111475403223217 5.624494153907723 0 0 1
91 1 3.421216203123245 16.12137666358401 5.73050381448856 1 1 0
298 1 6.932341412316867 14.978555038705721 9.772751714661956 -1 0 2
3 1 7.463769126808621 16.25019178552263 7.21724490321077 -1 -1 0
473 1 16.36303086502648 17.740918366761797 4.496819011353382 0 0 1
203 1 13.782080065741829 15.082969449332019 0.23908103824972238 0 -1 -1
340 1 13.552658788169607 13.680426786152262 3.96702701045708 0 0 1
347 1 21.470416838076925 13.309664347620284 3.1627614717519217 -1 -1 1
324 1 19.434920146368846 12.48024204431483 8.217519542492191 0 0 1
111 1 1.5187724772256594 19.74732712331221 4.624470015367136 1 0 0
8 1 3.649328480312632 14.80928934544155 8.797882237511681 0 -1 -1
137 1 10.522884642721024 18.032596687093367 2.2628232443941196 0 -1 1
461 1 11.332518883481402 17.12890468992522 21.425213111816753 0 -1 1
424 1 7.208484106497898 18.992826214007415 7.332833618813719 -2 -1 1
241 1 18.067439535334785 21.13901268325614 5.068936739829859 -1 1 1
456 1 14.438684962386905 0.6716106964160752 4.101884417728736 -1 1 2
335 1 16.964127003560137 18.700812024239326 21.42750477328422 -1 0 0
138 1 20.715997664542442 19.703905877794064 5.186198972354614 0 -1 0
327 1 17.698859116427812 15.697639530236446 6.076990776587666 -1 0 1
123 1 19.474760676623752 1.291168882409232 5.407965550130852 1 0 0
295 1 1.8807612400294746 2.879830823717067 7.002020259383153 0 0 1
256 1 0.313328038929629 1.381944276325211 6.530860498084661 2 2 0
205 1 2.8597213105681063 21.648237120708345 11.964441007611622 0 -1 1
322 1 12.9410688872735 21.15923292015723 7.729084088731823 -1 -2 0
343 1 14.41662662777165 16.63078527712311 7.116607939485819 -1 -1 1
61 1 16.252666125989222 3.0350557555479982 6.623088219134095 1 0 0
460 1 14.027520328287796 0.32742819351391994 10.755460361823225 -1 0 1
483 1 16.188684482723723 1.5016811688545342 5.042498450257787 -1 2 1
488 1 17.56006166734094 1.045386625004234 8.000201796234492 1 2 0
121 1 19.67581574219198 0.47305052937501335 7.981455332382048 -1 1 0
221 1 20.511713277064956 3.533933152110522 8.399524225010998 0 2 0
434 1 8.063618544300594 3.9500427128408107 5.88189442839953 0 1 0
112 1 12.472517010130684 2.8061576275980205 5.568111934748993 0 -1 0
244 1 13.37163610590714 1.832552367717115 7.567507006072952 0 -2 0
328 1 21.400004198386164 6.928138228371662 8.747503800238766 -1 0 -1
60 1 18.272994253809763 4.604369452775491 8.423583502707134 -1 1 -2
89 1 18.77004745395717 3.8265101010283913 6.16781340567901 -1 -1 0
458 1 3.0393571707266966 13.610576363367121 6.766308965678528 1 0 0
183 1 1.8595324264402082 9.106806795968684 8.439712884423553 2 0 -1
83 1 4.513304153068657 5.201014674357771 7.382151194718297 0 0 1
31 1 4.272056843923556 5.057521078173574 10.568001462870443 0 0 -1
19 1 8.584531597122824 5.948664219298545 9.022300601904043 0 -1 0
338 1 11.572394007692479 4.861410473396834 6.0908145437758145 0 0 1
419 1 7.880732505416652 5.672592718559216 3.0092530207059425 -1 -1 2
232 1 11.196849693022658 5.441429900128843 9.534729007936793 -2 0 0
253 1 -0.0006699653844890463 8.911819249852524 6.682132711309111 1 1 0
170 1 18.15470275939827 10.746851416401132 8.396781982397805 0 -1 -1
204 1 18.8790839274478 7.005477469392519 7.869045969538838 -1 -1 -1
332 1 2.0620065138347776 10.043387230041137 10.865210879536841 0 2 1
141 1 0.7115617642220433 13.667590012652449 10.473095267966078 0 -1 0
219 1 5.512924533009312 9.140381996205573 5.561707403543084 0 1 2
288 1 2.913536185502249 7.171650762888656 6.3375031287685655 2 -1 -1
17 1 9.843919035558294 12.974780486014877 10.44862324014312 1 1 0
59 1 11.9454861690671 12.050514324483816 6.030148814390633 1 0 1
90 1 18.305896524536934 8.482693526029328 9.84066002543772 0 1 0
503 1 15.834917693438625 11.502637253983915 7.393982773558508 0 1 -2
206 1 21.57810996963824 11.195030933227118 7.581052936402557 -2 1 1
129 1 19.172544695631736 13.430699672101188 10.417026867918448 0 0 -1
70 1 3.0220503981037288 13.630223980553355 11.022216823905458 -1 1 0
268 1 4.3040638758381045 8.19674104003738 7.815502626773613 0 -1 2
199 1 11.529954424033276 15.91510978981332 9.231891764238116 -1 -1 0
486 1 5.216671800224131 12.373161211617116 9.610501506761109 0 1 0
7 1 9.192894387190973 15.60692055171927 5.66706776185556 -1 -2 -1
413 1 11.040910396377448 13.548094739214294 8.380953374297949 1 -1 0
259 1 13.600634556665776 12.589802458853136 8.704304944083308 -1 0 0
63 1 17.33787529417092 13.739399852095392 3.456272996331388 1 0 -1
38 1 16.79107991607068 12.08509135175902 10.59295329115112 -1 -1 0
380 1 19.502273779214732 14.991810058183837 5.249464326375486 2 -1 1
364 1 0.9490467784327221 15.202670664694239 5.545908191021668 0 0 1
106 1 1.9540928292144224 17.12152667866082 9.649495711219503 0 1 0
108 1 4.432963954041793 0.13526463489806098 8.319052630304613 0 1 0
93 1 4.458084776327618 17.25594117777984 9.0391568314818 1 1 1
168 1 1.1060838951329306 19.327464254109103 7.51629658559862 2 0 0
265 1 2.8887403535109017 16.940650054829923 12.00190904772922 -2 -1 1
66 1 7.632750587805831 20.396987897150375 13.39312725955446 1 -1 0
273 1 4.651304384929334 15.70766356939387 11.50458863741058 0 1 1
361 1 8.831045811560674 19.43552032121783 9.107133106018575 -1 -1 0
300 1 11.798653468567974 15.705985038298065 3.64848242175702 -1 -1 0
366 1 16.732228083933208 18.178960054074636 6.925542757095663 0 0 0
52 1 17.268834775063823 13.702093593520427 7.533854714111723 -1 0 -1
158 1 20.401681882770866 18.211978872325417 8.281284908157836 -1 -1 0
231 1 21.10108693858121 17.322699317894624 10.642296611707154 0 0 0
482 1 3.398906887618064 18.388766442971693 5.87003150252338 -1 0 0
415 1 1.5049363200618064 0.17030631650926153 8.180625935795225 1 1 0
4 1 2.285458492916105 19.616785223534457 9.734225024609918 1 -2 1
487 1 7.70362214782894 20.554148209285117 3.6318035401578714 0 0 -1
113 1 7.504792068999811 21.142444451920987 5.8240047555154275 0 1 -1
200 1 11.397503455323394 17.019258880855958 6.909268874181041 0 -1 0
172 1 12.547776214976281 18.872972038785036 5.650255238303259 -1 0 0
12 1 11.74920605055598 14.981510203016606 5.898296623468179 1 -1 0
25 1 18.979966916879313 19.81517168996203 7.378262902737492 -1 -1 0
420 1 2.425958083555155 3.2304435634063458 9.404307998983333 1 1 0
246 1 1.6226265060286975 5.027919679175059 11.489427150965414 1 1 -1
368 1 4.7817229841048645 20.424157199165897 10.50366638108027 0 0 0
509 1 2.943731170430975 4.5667324226693164 13.591990302283351 2 1 0
370 1 11.592795652936877 3.067309908184808 8.945914037917342 1 1 2
171 1 8.751203002294456 2.4187520202056736 9.82255689712299 0 0 1
153 1 8.081124351320307 21.575988569153644 10.069127874192569 0 -1 0
209 1 9.463254268431255 2.7558185950671796 7.38595690351732 0 1 1
441 1 15.15744626881159 2.2607113294663854 8.991859143032432 0 -1 0
198 1 15.838114649203003 20.99400964796874 8.582143541079672 0 2 0
6 1 19.796646531996863 1.9927723345334258 10.466802921414777 -1 1 -1
352 1 20.650830977951486 21.489036145290875 11.392513480909823 0 0 -1
23 1 5.079478159697604 2.217004115472622 9.282200853899536 2 0 0
135 1 13.739295947661367 4.30869312163603 10.005943625684067 0 -1 -1
280 1 7.443034209127337 4.248243062522329 10.984264396943583 1 -1 -1
276 1 7.653401401475423 8.081005067961485 9.442367474596335 0 0 0
220 1 14.393864068803438 5.381044426029984 12.112244906551712 0 -1 1
75 1 12.682127508091796 2.05617196091998 11.979425561915193 0 1 0
510 1 21.390006171776875 4.024678272165841 10.841427301504927 -1 1 2
437 1 17.41222073848663 2.5611638952217812 10.505285692923026 -1 0 1
30 1 0.21986543437342101 12.02827871591245 14.948251050764574 3 0 -2
499 1 6.668964510707837 4.109332699878084 7.7310522615620245 1 1 -2
257 1 8.888523250963285 6.5164286705135686 6.1650658728673875 1 -1 2
285 1 9.951759186254336 10.476303625397213 9.49797395868 0 0 -1
329 1 10.740343060593666 8.691725246507156 8.199909714070968 -1 1 0
439 1 16.123546209220052 7.485319196481689 8.035708116416581 -2 -1 0
14 1 13.039668057603441 5.747646939524161 7.734393811901879 -2 -1 0
511 1 11.567750985377543 4.986840126117108 13.753523648916527 -1 0 1
41 1 17.76386104056089 9.707374063729462 12.752359060282352 -1 1 1
348 1 2.8053570601042948 10.611181626844232 6.753531525550982 1 -1 -2
49 1 8.606660080213409 10.630038339377789 7.5092364793351924 1 1 0
306 1 4.5923069386220545 11.790529580700484 7.383861571006899 0 0 1
78 1 8.015238977737969 10.47801874705989 13.318275011922463 2 0 1
476 1 9.27996268674216 10.455703885145342 5.027861890179249 1 0 -1
201 1 11.423485902266176 9.401995289509449 6.021192096377877 -2 -1 1
36 1 10.429429324285767 15.949946189787783 12.000954201654686 -2 -1 -1
97 1 14.823995483069924 7.699962426999438 13.03091802283464 0 2 0
381 1 15.782584866486037 13.179629182173324 12.509486414050453 0 -1 1
402 1 19.939576001786754 12.029427072407943 13.453344705749151 1 0 -1
173 1 21.253369123426623 13.91811153157949 15.587772390562817 -1 -1 -1
386 1 4.191192080178452 11.166331551533833 11.349315666869941 0 0 2
446 1 1.1762780114419906 14.785207601171438 8.577799628849679 0 0 1
479 1 5.200050790924611 8.979344983359661 10.87258816367019 0 1 0
57 1 5.987166944170768 10.030626988017255 8.683275720240609 1 -1 -2
227 1 7.770709754681641 12.561485481486134 8.744508232223586 -1 1 -1
47 1 5.217760147087834 13.04226116770194 16.194308522957385 1 0 -1
147 1 7.36631904882981 12.712298866529967 11.670763149661733 1 -2 0
374 1 12.918799639376155 17.80190619483016 9.260435346552514 0 0 1
312 1 15.827393303064927 9.365518686124256 10.88462362264233 0 0 0
354 1 12.349859390952764 10.680046096764425 9.990315951743579 -2 -1 2
155 1 1.9990221446331682 16.031907576678513 16.547044706995564 1 0 -1
512 1 15.646502339628663 14.325286475994705 9.574947717610616 -1 0 1
294 1 17.633137398518222 14.720803394520068 11.929200850043976 0 0 -1
485 1 1.3678657324330916 1.3891127787903879 10.4927802951467 1 0 -1
465 1 8.125938822151147 15.95302338064666 11.509168373042757 0 0 0
139 1 6.966941211596792 14.936087921200816 13.265808946162444 1 0 -1
449 1 9.016983523683054 16.730728521044696 8.857421045269025 1 0 0
150 1 9.89053330452354 20.461692654254378 15.152483127400453 0 -1 0
151 1 15.045667175378878 16.550037653181064 10.182133165018769 1 0 -2
210 1 16.000164941499364 17.457207337744123 12.388237081072457 -1 0 0
287 1 18.834981480417618 16.06257387828098 8.964748336696209 0 -1 0
239 1 20.645752026122345 15.218407972574976 11.845690760442729 -1 1 0
166 1 17.09132588083537 20.53720074729189 10.69282411016085 0 -1 -2
289 1 2.0342221320935 21.3931818497471 14.437317321855536 1 0 1
470 1 0.6756811789446293 19.984362756545295 11.881502254347867 -1 -1 0
344 1 5.467304182227029 18.361116367528183 10.943507372204902 1 -1 0
144 1 6.347067558165447 0.6018213886356184 12.035508937220142 1 0 0
187 1 10.944629171871519 20.834641591076668 9.117988527022442 0 -2 0
481 1 10.927170619031642 1.0264302965308787 10.651606518135164 0 0 -1
469 1 16.25871880823489 20.620751026803852 6.175539211129861 1 0 0
176 1 17.755812658539256 17.532373278215054 10.528434105866255 0 -1 -2
317 1 11.338329511640017 19.155024858209515 11.237529336514548 0 -1 0
228 1 19.363227683984 19.46191918975365 10.51907152249497 0 1 0
131 1 20.77693043896827 17.876556090610308 12.973174274628272 -2 0 0
464 1 2.857926915304127 2.642311105036064 15.4887165975039 2 1 -1
430 1 5.536992488856891 3.5187376335981764 13.934725905969987 0 -1 1
406 1 7.35629979760247 1.9602456117904856 14.327852003617123 0 -1 2
412 1 7.8459023499841765 4.582389295884739 16.19576865124378 0 1 1
275 1 9.20623903028122 0.60243690884591 12.460831157724193 0 1 0
313 1 10.206861375647792 8.025784859275822 12.617543494016013 -1 1 1
169 1 16.550445243601473 0.8884301623822938 11.854577896502386 -1 1 1
188 1 12.045396099899504 2.6176764198416316 15.528417108442236 1 0 1
400 1 17.45938369391574 20.121262473285555 13.507339058226297 -1 -1 1
120 1 0.9862231487474462 1.4714768021412807 14.590644356408196 1 0 0
410 1 0.7437934612199323 7.207622355193752 13.403871796061217 1 1 1
145 1 19.490261763009904 5.589668114779328 12.261596638720084 0 0 -2
222 1 5.716767745896812 2.988445693089908 11.50291499470908 2 1 -1
489 1 6.988419740490721 5.836835880108218 13.285082121994746 -1 1 0
405 1 9.73373538646899 4.137463063019225 11.51571660835574 -2 -1 1
254 1 10.485363255078473 7.881900926922113 18.864797402425047 0 1 -1
65 1 8.43020919515289 8.458283116680281 14.536398988663828 -2 2 -1
214 1 13.769126475360041 8.377745794117317 15.150269722173674 0 0 -2
492 1 17.44044910875165 4.539118965256812 11.861116327996635 -1 3 0
243 1 16.57948415297843 3.1144976208350292 13.627650859662632 0 -1 1
11 1 19.06333854740261 2.3291238038215862 14.46855910829585 0 1 0
429 1 20.941002500201385 2.0751344173014528 13.124108259476534 -1 0 1
9 1 0.5104983555225957 7.460977426143992 10.98930027105348 0 -1 0
283 1 20.33571574427104 8.626109685459651 13.43648068499544 -1 0 0
349 1 6.426562242713072 2.6314460540336437 18.351275626612697 1 0 0
305 1 3.5049807372810893 8.58856750994549 15.350069501374406 -1 0 -1
319 1 4.560519037497249 9.331750666968555 17.876067553922752 1 -1 0
307 1 13.244798971479565 8.654533458811397 11.55474441423721 1 0 2
353 1 8.968738191285485 9.644556669594257 11.39143864156405 1 2 -1
417 1 15.023211170562549 9.42523973952298 8.419491577430284 1 1 0
167 1 15.822657909575572 5.1761449985855705 9.018150314944268 -2 -2 0
438 1 19.650284207763747 10.752120580259119 11.406822255566938 -1 0 1
432 1 21.746178693536997 11.367544177396645 9.79160870953396 -1 -1 -1
448 1 6.081127445463703 7.4937681910453495 14.90998395187032 -1 0 1
472 1 2.916520454340771 8.678155339528821 12.81601176931441 0 1 2
33 1 5.840054151720166 9.421204355227111 13.529966988729196 0 0 0
369 1 4.374310745809662 6.390949226191451 12.639974040577671 2 1 -2
85 1 7.402896317538377 12.27635014265908 15.167111001645614 1 1 0
371 1 13.636864993144169 11.989067795765164 11.699474717232476 0 -1 1
395 1 11.665635238890566 13.289254821936574 11.778401105024189 -1 -2 1
418 1 10.843973440353107 13.665213069550868 14.225811874549912 -1 -1 -1
178 1 12.85581465639877 7.851096798720014 9.01567971447624 1 -1 1
95 1 17.172143876485215 11.701868851974238 14.430724672458528 0 -1 -1
308 1 17.513388668962357 14.252095987350877 15.890885813066548 0 0 0
98 1 21.562683778841404 9.97093635214437 15.811578671967306 -1 1 0
99 1 18.931010341048108 14.062067093438227 13.733791284025292 -1 -1 1
365 1 2.498917638947982 11.207456273391102 14.120884811206901 0 -1 0
286 1 3.4195640238224994 13.839052389627971 13.873216512012846 0 0 0
323 1 2.4572715699751178 17.686795019449356 14.656293598574484 -1 -2 0
44 1 7.439576829844027 18.162200315184535 12.411413779358721 0 0 0
326 1 13.00201177476239 15.702518730708501 14.155062085889242 0 -1 1
160 1 13.028431072051456 15.275630978001926 11.465978391094549 -1 1 -1
115 1 0.12525728119938861 15.745119776180877 14.18002737666071 2 -1 0
377 1 5.281618206330467 12.269082037292653 13.347049523025811 1 0 2
16 1 2.964554841550691 20.174050585394646 16.543268245467146 0 0 -2
110 1 1.1121254199397879 19.735098387036473 17.741605530927366 -1 0 0
508 1 0.6995987751646763 19.52158629913044 14.244490083406621 -1 0 0
103 1 6.402476086182236 17.820473837928674 15.323888756826024 0 1 -1
43 1 6.616459214544142 19.531276416052435 16.90525552546972 0 0 0
226 1 11.127101880796829 17.143448736664283 14.563414188279218 0 0 1
433 1 9.138015102858155 18.443711500911824 16.993870281777788 1 -1 0
77 1 17.354365799068013 18.55381708291047 15.171370606139785 -1 0 1
389 1 18.469799292648695 16.954681013064253 12.747281851838784 -2 0 -1
32 1 17.27860215089239 16.50357616081648 16.845468923236275 -1 0 -1
505 1 20.481806408219768 19.16089313305958 20.31153661844248 -1 1 0
102 1 4.542708246801188 21.238769959393935 13.887423886412996 1 0 -2
291 1 7.713410238723527 0.1923208731822038 18.539070766477337 1 0 -1
484 1 4.562014477418014 18.541203425904676 13.346141886804611 -1 -1 1
325 1 9.836793350210312 2.7148280068387916 13.720099822301147 0 0 2
426 1 7.07745339292585 -0.01704943217875865 15.811516771387481 0 1 0
310 1 13.024809536287584 0.39973590416317484 14.39027853053695 0 0 1
401 1 20.014084855132914 20.6744545668412 13.71966666788517 1 0 2
500 1 20.349183453648195 20.72549748286587 16.18931779394569 -1 0 0
194 1 19.593096754264387 18.63538308343891 0.9411998394303905 -2 0 -1
435 1 2.558020111804024 21.51802258053307 1.1411417633754284 0 -1 1
320 1 1.8897453190796774 2.252216394064119 17.971238134469225 1 -1 0
339 1 5.6366453260984715 3.5750879672830855 16.190559671775006 0 2 -1
134 1 8.373035239143267 4.602438153027161 19.022586314196083 -1 -1 -1
62 1 6.626612351545488 21.03762401199986 21.38313619269975 2 -1 -3
281 1 12.589126615513502 1.5808747572939847 17.812160052134665 2 -1 -1
392 1 16.486493885796094 2.3018363006430143 16.97062287752373 -1 1 1
345 1 17.06517300789647 20.221498035201755 16.95080961171491 -1 -2 -1
388 1 1.3686678186910806 18.900935362380388 20.25017898286835 0 0 1
315 1 15.55034589821962 6.510881697297677 15.942128649471139 -2 0 0
302 1 1.1804197701560886 8.414671527496637 17.032938341349173 1 1 -1
337 1 4.105353509890085 6.3696248750548845 19.20520720047314 2 0 1
191 1 5.053897661819214 6.347360222615423 21.73934295530361 1 1 -1
355 1 6.579379458460539 6.27036115215562 18.183351347011715 -1 0 0
237 1 9.358831947060132 5.607300637928353 14.43336587301916 1 0 -2
442 1 10.655784946168104 9.366985043770121 16.36575338731842 0 1 -1
378 1 14.071970150904622 3.5015637106473085 13.621200518236588 1 1 0
223 1 16.768333349447197 6.722275179198531 11.051543995758616 1 -1 0
161 1 19.864240594023975 7.4106397220586455 16.37421889980429 -1 0 0
215 1 18.961282326028034 5.599475406358724 14.71433810657504 0 1 0
143 1 1.0571364520917546 4.580936505602703 15.904626848443835 1 -1 0
184 1 21.31895054164351 4.530678298755851 13.59194318675062 0 -1 1
425 1 2.3253257638088236 8.581731955165104 19.149810503928485 0 0 0
186 1 7.070915419788947 8.689718246379563 16.905815329482536 0 -1 -2
21 1 7.27602555186638 10.97478448425868 20.121845846877875 1 -1 0
293 1 8.488462628222795 10.448107927250277 16.537218187575412 0 -1 0
15 1 10.92295904353086 5.361271072355213 17.633092843295685 -1 0 0
53 1 13.850608309081844 10.866925064676753 13.59316571980671 1 1 0
118 1 11.56384881111526 9.607115237895012 14.064050594513157 1 0 0
459 1 15.568838330929955 14.381852883174552 18.70309251721305 0 -2 0
5 1 17.089486158832088 7.264435627966273 13.634485881013475 -1 1 -2
142 1 2.5290388399492865 6.3129150577653315 16.950931909850397 1 1 -2
304 1 21.01420080438924 7.9769934093241375 18.392933209293233 -1 -1 -1
207 1 1.1189515144231221 10.67635183464799 19.30210537238797 2 0 -1
496 1 1.8791179106666347 12.678773832372146 17.849515819468003 0 0 -1
342 1 10.530110353466208 11.659306747023185 19.417919378953464 0 0 -1
86 1 8.586393483401324 11.620252254852662 18.531688601678454 -1 0 -1
455 1 13.01163212206757 12.84502987445331 14.734848042197022 -1 1 0
468 1 10.579622881321205 15.197260676385117 16.422210785143633 -1 1 1
140 1 12.714180507307562 12.05197373400628 17.20283381529884 -2 -1 0
2 1 13.871551272717998 15.406816199063051 16.721384771991836 0 0 0
10 1 15.181535150412415 17.04013709782003 14.734260835095462 1 0 -1
504 1 19.346827466721876 13.674293961315893 17.5326361725241 -1 1 -1
54 1 17.586804855343807 12.298618881991397 19.1718936126149 -1 1 -1
236 1 18.87937554011367 9.711398358142704 15.044336387932525 0 -1 -1
309 1 0.25986692888432467 17.646000458716742 16.929763122413682 -1 -1 -1
292 1 5.166206799696371 15.313006141766511 20.099471627400824 0 0 -1
165 1 5.163688686346722 14.907189046218356 14.915666536140412 0 0 1
252 1 14.743117298013397 20.11234135622624 12.638707934936107 -1 1 -2
346 1 15.193428276208024 13.462343249975978 15.84024519709938 0 -1 -2
149 1 -0.00977446206073558 14.43860852124404 18.081557060519806 0 1 -1
127 1 20.62194005695617 17.050417496911685 19.309273533573098 0 1 -1
13 1 5.658872572318407 16.979449117393784 18.504873575904824 2 -1 -1
146 1 3.307606109991561 14.823469785628038 18.87164481023531 1 -1 -1
196 1 3.9513639501140236 18.785853269499093 19.75598595770972 -1 -1 -1
452 1 3.225441025536686 11.225321737581211 16.685489129726776 1 1 0
240 1 12.439050156910685 20.663204702606038 20.200787218340018 0 1 -1
450 1 9.091544584651372 21.506888511027796 20.551352299559113 0 0 1
96 1 11.94566832786854 18.673746850227005 16.319115702784174 0 0 -1
249 1 9.89659060304473 21.473626120098096 17.164798578859326 -1 0 0
164 1 15.683102697044767 0.3454883193572212 14.292139870851338 0 -1 0
37 1 19.711692182256492 17.941317141693034 16.63040438620935 0 1 0
330 1 18.235425058044328 19.34854132840362 19.325932504944895 1 0 1
362 1 4.497817132251311 0.8990250561055892 15.795793305029903 1 2 0
359 1 4.940012558366226 20.73939563194731 18.6248861632342 0 0 -1
399 1 7.7619050957759885 16.143760821850172 16.4534173312342 0 -1 1
212 1 4.2244864289592305 0.15849130220275298 21.5761422519842 0 0 -1
22 1 6.9829520527484545 18.078923374541695 0.857943859609677 0 -2 -1