# LAMMPS data file written by OVITO Basic 3.5.4

8 atoms
1 atom types

0.0 5.431 xlo xhi
0.0 5.431 ylo yhi
0.0 5.431 zlo zhi

Masses

1 28.0855  # Si

Atoms  # atomic

1 1 1.35775 4.07325 1.35775
2 1 0.00000 0.00000 2.71550 
3 1 1.35775 1.35775 4.07325
4 1 0.00000 2.71550 0.00000     
5 1 4.07325 4.07325 4.07325
6 1 2.71550 0.00000 0.00000     
7 1 4.07325 1.35775 1.35775
8 1 2.71550 2.71550 2.71550 
