LAMMPS (23 Jun 2022 - Update 2)
# SW potential for Silicon

units		metal
dimension       3
processors      * * *
boundary	p p p

#read data
atom_style      atomic

# read restart
#read_restart    S300K.rest

#read data
read_data       Si_512.dat
Reading data file ...
  triclinic box = (0 0 0) to (21.724 21.724 21.724) with tilt (0 0 0)
  1 by 1 by 1 MPI processor grid
  reading atoms ...
  512 atoms
  read_data CPU = 0.005 seconds

#potential
pair_style      sw
pair_coeff      * * Si.sw Si
Reading sw potential file Si.sw with DATE: 2007-06-11

neighbor        2.0 bin
neigh_modify    every 1 delay 0 check yes

#outputs
velocity all create 300.0 121 mom yes dist gaussian
thermo		100
thermo_style	custom time temp press vol pe econserve
dump            1 all custom 100 md.lammpstrj id type xs ys zs vx vy vz fx fy fz
dump_modify     1 format line "%d %d %5.10f %5.10f %5.10f %5.10f %5.10f %5.10f %5.10f %5.10f %5.10f" pbc yes sort id

timestep        1e-3

#initial mixing
fix		3 all nvk
run             50000
Neighbor list info ...
  update every 1 steps, delay 0 steps, check yes
  max neighbors/atom: 2000, page size: 100000
  master list distance cutoff = 5.77118
  ghost atom cutoff = 5.77118
  binsize = 2.88559, bins = 8 8 8
  1 neighbor lists, perpetual/occasional/extra = 1 0 0
  (1) pair sw, perpetual
      attributes: full, newton on
      pair build: full/bin/atomonly
      stencil: full/bin/3d
      bin: standard
Per MPI rank memory allocation (min/avg/max) = 5.273 | 5.273 | 5.273 Mbytes
     Time           Temp          Press          Volume         PotEng       Econserve   
 0              300            2036.3253      10252.255     -2220.2982     -2200.4827    
 0.1            300            2981.1526      10252.255     -2203.9195     -2184.1039    
 0.2            300            2871.8917      10252.255     -2200.7273     -2180.9117    
 0.3            300            3033.7483      10252.255     -2198.765      -2178.9494    
 0.4            300            2809.1453      10252.255     -2198.7851     -2178.9695    
 0.5            300            3209.9102      10252.255     -2201.5412     -2181.7257    
 0.6            300            3218.8174      10252.255     -2202.6195     -2182.8039    
 0.7            300            2932.3964      10252.255     -2200.0469     -2180.2313    
 0.8            300            2814.7874      10252.255     -2201.9625     -2182.1469    
 0.9            300            2724.8554      10252.255     -2202.1782     -2182.3626    
 1              300            3271.4678      10252.255     -2202.8369     -2183.0213    
 1.1            300            3067.3691      10252.255     -2207.1712     -2187.3557    
 1.2            300            2755.2533      10252.255     -2201.7651     -2181.9495    
 1.3            300            2900.0311      10252.255     -2200.9272     -2181.1116    
 1.4            300            3496.0269      10252.255     -2199.3126     -2179.497     
 1.5            300            2943.3291      10252.255     -2202.5852     -2182.7696    
 1.6            300            3313.2264      10252.255     -2204.3454     -2184.5298    
 1.7            300            2979.963       10252.255     -2200.8276     -2181.0121    
 1.8            300            3505.2553      10252.255     -2197.8529     -2178.0373    
 1.9            300            3451.6484      10252.255     -2194.7289     -2174.9134    
 2              300            3339.5422      10252.255     -2199.7606     -2179.945     
 2.1            300            3079.2228      10252.255     -2205.057      -2185.2414    
 2.2            300            3610.7503      10252.255     -2199.9811     -2180.1655    
 2.3            300            3322.5373      10252.255     -2199.4293     -2179.6137    
 2.4            300            3202.8117      10252.255     -2203.7371     -2183.9216    
 2.5            300            3093.0613      10252.255     -2202.2331     -2182.4176    
 2.6            300            3266.6633      10252.255     -2203.8304     -2184.0148    
 2.7            300            3279.903       10252.255     -2201.4968     -2181.6813    
 2.8            300            2864.1948      10252.255     -2196.7895     -2176.9739    
 2.9            300            3658.7467      10252.255     -2194.4072     -2174.5916    
 3              300            3393.1137      10252.255     -2196.7213     -2176.9057    
 3.1            300            3472.7745      10252.255     -2200.2067     -2180.3911    
 3.2            300            3305.7606      10252.255     -2205.9387     -2186.1231    
 3.3            300            3213.2022      10252.255     -2196.952      -2177.1365    
 3.4            300            3198.7729      10252.255     -2200.3368     -2180.5212    
 3.5            300            3368.6873      10252.255     -2199.0434     -2179.2278    
 3.6            300            3204.0871      10252.255     -2199.8378     -2180.0222    
 3.7            300            3518.767       10252.255     -2201.9061     -2182.0905    
 3.8            300            3404.2233      10252.255     -2201.0245     -2181.2089    
 3.9            300            3496.8245      10252.255     -2193.6212     -2173.8057    
 4              300            3547.5628      10252.255     -2198.4602     -2178.6446    
 4.1            300            3323.9938      10252.255     -2200.2299     -2180.4144    
 4.2            300            3436.4991      10252.255     -2202.442      -2182.6264    
 4.3            300            3428.0893      10252.255     -2200.3846     -2180.569     
 4.4            300            3461.5525      10252.255     -2190.4168     -2170.6012    
 4.5            300            3418.8651      10252.255     -2197.3863     -2177.5707    
 4.6            300            3544.1178      10252.255     -2199.0567     -2179.2411    
 4.7            300            3574.192       10252.255     -2200.3955     -2180.5799    
 4.8            300            3739.5675      10252.255     -2201.9491     -2182.1335    
 4.9            300            3294.7154      10252.255     -2198.9423     -2179.1267    
 5              300            3779.0521      10252.255     -2193.5439     -2173.7283    
 5.1            300            3554.1476      10252.255     -2195.5044     -2175.6888    
 5.2            300            3380.9093      10252.255     -2201.3829     -2181.5674    
 5.3            300            3573.5351      10252.255     -2201.8337     -2182.0181    
 5.4            300            3544.7998      10252.255     -2198.2073     -2178.3917    
 5.5            300            3436.329       10252.255     -2195.7336     -2175.918     
 5.6            300            3408.0114      10252.255     -2200.1318     -2180.3163    
 5.7            300            3385.2195      10252.255     -2199.3277     -2179.5121    
 5.8            300            3570.0386      10252.255     -2201.7617     -2181.9461    
 5.9            300            3322.9832      10252.255     -2200.5333     -2180.7177    
 6              300            3389.198       10252.255     -2195.3085     -2175.4929    
 6.1            300            3286.1571      10252.255     -2198.4058     -2178.5902    
 6.2            300            3432.586       10252.255     -2198.1339     -2178.3183    
 6.3            300            3488.9373      10252.255     -2202.2256     -2182.41      
 6.4            300            3375.9132      10252.255     -2204.4741     -2184.6585    
 6.5            300            3459.7222      10252.255     -2196.2925     -2176.4769    
 6.6            300            3243.7498      10252.255     -2201.144      -2181.3284    
 6.7            300            3329.4811      10252.255     -2199.0295     -2179.214     
 6.8            300            3196.8246      10252.255     -2200.7182     -2180.9026    
 6.9            300            3289.8891      10252.255     -2202.3836     -2182.568     
 7              300            3189.9528      10252.255     -2198.9493     -2179.1337    
 7.1            300            3222.0532      10252.255     -2196.1246     -2176.309     
 7.2            300            3157.1976      10252.255     -2204.0944     -2184.2788    
 7.3            300            3091.6808      10252.255     -2202.8431     -2183.0276    
 7.4            300            3165.8577      10252.255     -2204.3654     -2184.5498    
 7.5            300            3314.4226      10252.255     -2199.5787     -2179.7631    
 7.6            300            3100.6824      10252.255     -2196.1926     -2176.3771    
 7.7            300            3059.7124      10252.255     -2203.6464     -2183.8309    
 7.8            300            3258.6043      10252.255     -2202.5754     -2182.7598    
 7.9            300            3325.0968      10252.255     -2204.2488     -2184.4332    
 8              300            3195.4696      10252.255     -2205.3187     -2185.5031    
 8.1            300            3182.539       10252.255     -2196.3135     -2176.4979    
 8.2            300            3109.3148      10252.255     -2196.7509     -2176.9353    
 8.3            300            3126.6464      10252.255     -2199.9937     -2180.1781    
 8.4            300            3283.6552      10252.255     -2201.6918     -2181.8762    
 8.5            300            3142.6086      10252.255     -2202.0256     -2182.21      
 8.6            300            3241.0355      10252.255     -2199.6752     -2179.8596    
 8.7            300            3429.5049      10252.255     -2198.6331     -2178.8176    
 8.8            300            3489.1472      10252.255     -2202.0779     -2182.2623    
 8.9            300            3277.9082      10252.255     -2202.8763     -2183.0608    
 9              300            3486.7601      10252.255     -2204.6213     -2184.8057    
 9.1            300            3544.1954      10252.255     -2199.0313     -2179.2157    
 9.2            300            3658.6805      10252.255     -2192.9599     -2173.1444    
 9.3            300            3233.0182      10252.255     -2198.9829     -2179.1673    
 9.4            300            3241.4702      10252.255     -2200.4857     -2180.6701    
 9.5            300            3441.2016      10252.255     -2203.235      -2183.4194    
 9.6            300            3762.9037      10252.255     -2199.1866     -2179.371     
 9.7            300            3126.2508      10252.255     -2199.0699     -2179.2543    
 9.8            300            3211.1809      10252.255     -2202.08       -2182.2644    
 9.9            300            3789.8843      10252.255     -2198.1133     -2178.2977    
 10             300            3646.4395      10252.255     -2201.5223     -2181.7068    
 10.1           300            3300.6049      10252.255     -2204.9157     -2185.1002    
 10.2           300            3522.3509      10252.255     -2197.9954     -2178.1798    
 10.3           300            3657.3316      10252.255     -2195.4537     -2175.6381    
 10.4           300            3559.1946      10252.255     -2202.3881     -2182.5725    
 10.5           300            3370.546       10252.255     -2200.1395     -2180.3239    
 10.6           300            3391.1171      10252.255     -2202.7388     -2182.9232    
 10.7           300            3817.4392      10252.255     -2193.3847     -2173.5691    
 10.8           300            3310.9657      10252.255     -2194.8625     -2175.0469    
 10.9           300            3345.4145      10252.255     -2201.0022     -2181.1867    
 11             300            3437.3454      10252.255     -2201.2845     -2181.4689    
 11.1           300            3715.1598      10252.255     -2202.184      -2182.3685    
 11.2           300            3464.5462      10252.255     -2203.1617     -2183.3461    
 11.3           300            3027.6668      10252.255     -2200.1721     -2180.3565    
 11.4           300            3182.8599      10252.255     -2201.0793     -2181.2637    
 11.5           300            3349.7201      10252.255     -2202.1171     -2182.3015    
 11.6           300            3287.4064      10252.255     -2200.6992     -2180.8836    
 11.7           300            3321.8315      10252.255     -2200.6686     -2180.853     
 11.8           300            3108.4011      10252.255     -2197.9663     -2178.1507    
 11.9           300            3295.4817      10252.255     -2198.3364     -2178.5208    
 12             300            3196.539       10252.255     -2203.6064     -2183.7908    
 12.1           300            3015.2619      10252.255     -2204.234      -2184.4184    
 12.2           300            3380.8899      10252.255     -2203.78       -2183.9644    
 12.3           300            3375.1219      10252.255     -2196.8907     -2177.0751    
 12.4           300            3261.3781      10252.255     -2198.674      -2178.8584    
 12.5           300            3055.1877      10252.255     -2203.8088     -2183.9932    
 12.6           300            3357.3848      10252.255     -2202.3792     -2182.5636    
 12.7           300            3413.2741      10252.255     -2203.0506     -2183.2351    
 12.8           300            3187.9858      10252.255     -2200.1896     -2180.374     
 12.9           300            2883.953       10252.255     -2198.7478     -2178.9322    
 13             300            3215.1586      10252.255     -2199.3979     -2179.5823    
 13.1           300            3399.1145      10252.255     -2200.4786     -2180.6631    
 13.2           300            3256.3433      10252.255     -2203.2064     -2183.3909    
 13.3           300            3119.1681      10252.255     -2202.8738     -2183.0582    
 13.4           300            3081.172       10252.255     -2196.2368     -2176.4212    
 13.5           300            3269.5576      10252.255     -2200.6192     -2180.8036    
 13.6           300            3277.6298      10252.255     -2204.9707     -2185.1551    
 13.7           300            3402.1988      10252.255     -2201.6802     -2181.8646    
 13.8           300            3395.4308      10252.255     -2204.576      -2184.7604    
 13.9           300            3252.4232      10252.255     -2197.1048     -2177.2892    
 14             300            3269.8841      10252.255     -2196.4715     -2176.6559    
 14.1           300            3328.4551      10252.255     -2199.7808     -2179.9652    
 14.2           300            3553.9521      10252.255     -2199.9106     -2180.095     
 14.3           300            3571.7478      10252.255     -2202.0623     -2182.2467    
 14.4           300            3296.1401      10252.255     -2201.3139     -2181.4983    
 14.5           300            3348.2252      10252.255     -2196.0059     -2176.1903    
 14.6           300            3360.8021      10252.255     -2200.7074     -2180.8918    
 14.7           300            3613.3775      10252.255     -2199.9683     -2180.1528    
 14.8           300            3571.0194      10252.255     -2198.6219     -2178.8063    
 14.9           300            3543.0629      10252.255     -2200.7111     -2180.8955    
 15             300            3457.7911      10252.255     -2196.6101     -2176.7946    
 15.1           300            3777.3092      10252.255     -2196.879      -2177.0634    
 15.2           300            3650.4162      10252.255     -2200.7184     -2180.9028    
 15.3           300            3448.8748      10252.255     -2201.8033     -2181.9877    
 15.4           300            3495.9767      10252.255     -2202.125      -2182.3095    
 15.5           300            3528.3305      10252.255     -2195.7634     -2175.9478    
 15.6           300            3519.9748      10252.255     -2196.9749     -2177.1594    
 15.7           300            3539.8432      10252.255     -2199.8264     -2180.0108    
 15.8           300            3542.6016      10252.255     -2200.5289     -2180.7133    
 15.9           300            3556.1901      10252.255     -2201.2385     -2181.4229    
 16             300            3460.777       10252.255     -2197.8533     -2178.0377    
 16.1           300            3368.8088      10252.255     -2197.5197     -2177.7041    
 16.2           300            3533.6751      10252.255     -2199.9355     -2180.12      
 16.3           300            3771.1601      10252.255     -2199.7772     -2179.9616    
 16.4           300            3706.7271      10252.255     -2199.6967     -2179.8811    
 16.5           300            3410.081       10252.255     -2199.8774     -2180.0619    
 16.6           300            3297.7671      10252.255     -2195.0314     -2175.2158    
 16.7           300            3468.395       10252.255     -2200.1491     -2180.3335    
 16.8           300            3598.4         10252.255     -2201.3481     -2181.5325    
 16.9           300            3450.5892      10252.255     -2201.1027     -2181.2872    
 17             300            3301.4004      10252.255     -2203.4317     -2183.6162    
 17.1           300            3394.9756      10252.255     -2193.0352     -2173.2196    
 17.2           300            3360.0262      10252.255     -2195.7384     -2175.9228    
 17.3           300            3325.6479      10252.255     -2201.7059     -2181.8903    
 17.4           300            3202.3455      10252.255     -2203.2135     -2183.3979    
 17.5           300            3502.847       10252.255     -2201.7746     -2181.959     
 17.6           300            3430.2995      10252.255     -2200.5621     -2180.7466    
 17.7           300            3160.7636      10252.255     -2199.4281     -2179.6125    
 17.8           300            3384.0853      10252.255     -2203.909      -2184.0934    
 17.9           300            3401.3563      10252.255     -2203.1503     -2183.3347    
 18             300            3205.6417      10252.255     -2202.2818     -2182.4662    
 18.1           300            3198.7894      10252.255     -2200.962      -2181.1464    
 18.2           300            3224.9404      10252.255     -2193.237      -2173.4215    
 18.3           300            3434.6169      10252.255     -2198.4573     -2178.6417    
 18.4           300            3390.8275      10252.255     -2202.9719     -2183.1563    
 18.5           300            3278.6589      10252.255     -2202.6509     -2182.8353    
 18.6           300            3221.3466      10252.255     -2202.6682     -2182.8526    
 18.7           300            3242.227       10252.255     -2199.0009     -2179.1853    
 18.8           300            3445.3057      10252.255     -2199.0651     -2179.2495    
 18.9           300            3358.1373      10252.255     -2202.6779     -2182.8623    
 19             300            3371.7868      10252.255     -2202.9095     -2183.0939    
 19.1           300            3371.2324      10252.255     -2202.6645     -2182.8489    
 19.2           300            3453.5842      10252.255     -2198.9399     -2179.1243    
 19.3           300            3321.1174      10252.255     -2197.3205     -2177.5049    
 19.4           300            3302.8892      10252.255     -2202.0922     -2182.2766    
 19.5           300            3300.2141      10252.255     -2201.8126     -2181.9971    
 19.6           300            3588.9117      10252.255     -2199.3291     -2179.5135    
 19.7           300            3357.2219      10252.255     -2198.7824     -2178.9668    
 19.8           300            3218.8795      10252.255     -2196.8489     -2177.0334    
 19.9           300            3413.7728      10252.255     -2203.0592     -2183.2436    
 20             300            3540.7886      10252.255     -2202.1701     -2182.3545    
 20.1           300            3405.1577      10252.255     -2204.0584     -2184.2428    
 20.2           300            3275.3222      10252.255     -2203.4788     -2183.6633    
 20.3           300            3545.7473      10252.255     -2196.1939     -2176.3784    
 20.4           300            3481.6077      10252.255     -2199.2149     -2179.3993    
 20.5           300            3496.1806      10252.255     -2200.6361     -2180.8205    
 20.6           300            3320.6471      10252.255     -2199.5857     -2179.7702    
 20.7           300            3399.0868      10252.255     -2199.7142     -2179.8986    
 20.8           300            3450.0925      10252.255     -2197.6633     -2177.8477    
 20.9           300            3527.6153      10252.255     -2197.0731     -2177.2576    
 21             300            3335.8349      10252.255     -2206.1768     -2186.3612    
 21.1           300            3377.4644      10252.255     -2203.4089     -2183.5933    
 21.2           300            3433.4903      10252.255     -2201.5535     -2181.738     
 21.3           300            3195.1619      10252.255     -2200.3274     -2180.5118    
 21.4           300            3102.0579      10252.255     -2197.9066     -2178.091     
 21.5           300            3408.5628      10252.255     -2202.3175     -2182.5019    
 21.6           300            3422.7286      10252.255     -2202.6761     -2182.8605    
 21.7           300            3474.9769      10252.255     -2199.94       -2180.1244    
 21.8           300            3234.8739      10252.255     -2200.6899     -2180.8743    
 21.9           300            3393.5827      10252.255     -2196.4382     -2176.6226    
 22             300            3478.0552      10252.255     -2198.1558     -2178.3402    
 22.1           300            3304.285       10252.255     -2204.0869     -2184.2714    
 22.2           300            3266.8194      10252.255     -2203.2353     -2183.4197    
 22.3           300            3481.8403      10252.255     -2199.6484     -2179.8329    
 22.4           300            3586.3684      10252.255     -2196.5101     -2176.6946    
 22.5           300            3342.5268      10252.255     -2198.989      -2179.1734    
 22.6           300            3382.9173      10252.255     -2204.253      -2184.4374    
 22.7           300            3509.2197      10252.255     -2201.025      -2181.2095    
 22.8           300            3608.3319      10252.255     -2198.8467     -2179.0311    
 22.9           300            3430.0396      10252.255     -2197.6483     -2177.8328    
 23             300            3599.0411      10252.255     -2193.3986     -2173.583     
 23.1           300            3420.3025      10252.255     -2200.7429     -2180.9273    
 23.2           300            3573.6813      10252.255     -2200.4855     -2180.67      
 23.3           300            3428.6117      10252.255     -2202.3625     -2182.5469    
 23.4           300            3520.448       10252.255     -2199.5787     -2179.7632    
 23.5           300            3343.6621      10252.255     -2198.2607     -2178.4451    
 23.6           300            3501.0798      10252.255     -2200.6373     -2180.8217    
 23.7           300            3504.2647      10252.255     -2202.1421     -2182.3265    
 23.8           300            3481.3581      10252.255     -2199.156      -2179.3404    
 23.9           300            3298.6217      10252.255     -2200.1432     -2180.3276    
 24             300            3492.1846      10252.255     -2197.0238     -2177.2082    
 24.1           300            3484.2379      10252.255     -2197.5552     -2177.7396    
 24.2           300            3600.4403      10252.255     -2203.3428     -2183.5272    
 24.3           300            3630.3665      10252.255     -2199.8634     -2180.0478    
 24.4           300            3325.5478      10252.255     -2200.641      -2180.8255    
 24.5           300            3475.3963      10252.255     -2197.9976     -2178.182     
 24.6           300            3403.2146      10252.255     -2195.9615     -2176.146     
 24.7           300            3529.795       10252.255     -2202.1296     -2182.314     
 24.8           300            3475.6969      10252.255     -2201.6529     -2181.8373    
 24.9           300            3555.7038      10252.255     -2198.8295     -2179.0139    
 25             300            3328.8749      10252.255     -2200.459      -2180.6435    
 25.1           300            3411.1314      10252.255     -2198.0783     -2178.2628    
 25.2           300            3321.3692      10252.255     -2201.2824     -2181.4668    
 25.3           300            3578.9922      10252.255     -2203.1413     -2183.3257    
 25.4           300            3469.4935      10252.255     -2199.6182     -2179.8027    
 25.5           300            3498.4081      10252.255     -2198.5374     -2178.7218    
 25.6           300            3158.3515      10252.255     -2199.8943     -2180.0787    
 25.7           300            3539.645       10252.255     -2198.095      -2178.2795    
 25.8           300            3421.2353      10252.255     -2204.1288     -2184.3132    
 25.9           300            3314.9592      10252.255     -2202.588      -2182.7724    
 26             300            3294.5188      10252.255     -2201.6724     -2181.8568    
 26.1           300            3556.3768      10252.255     -2196.1312     -2176.3157    
 26.2           300            3474.8052      10252.255     -2196.8064     -2176.9908    
 26.3           300            3411.7082      10252.255     -2202.3833     -2182.5677    
 26.4           300            3607.9941      10252.255     -2201.4723     -2181.6567    
 26.5           300            3505.329       10252.255     -2201.3917     -2181.5761    
 26.6           300            3624.5892      10252.255     -2199.0389     -2179.2233    
 26.7           300            3458.9365      10252.255     -2198.2174     -2178.4018    
 26.8           300            3572.2507      10252.255     -2200.0562     -2180.2406    
 26.9           300            3637.0363      10252.255     -2202.2202     -2182.4046    
 27             300            3586.4212      10252.255     -2198.9591     -2179.1435    
 27.1           300            3275.6684      10252.255     -2200.8322     -2181.0166    
 27.2           300            3448.856       10252.255     -2195.0553     -2175.2398    
 27.3           300            3474.8073      10252.255     -2198.6607     -2178.8451    
 27.4           300            3544.5696      10252.255     -2204.1833     -2184.3678    
 27.5           300            3517.1667      10252.255     -2201.2534     -2181.4378    
 27.6           300            3474.0327      10252.255     -2201.9815     -2182.166     
 27.7           300            3507.3308      10252.255     -2199.6763     -2179.8607    
 27.8           300            3629.7623      10252.255     -2196.9146     -2177.099     
 27.9           300            3601.0427      10252.255     -2201.4837     -2181.6681    
 28             300            3447.2357      10252.255     -2201.7755     -2181.9599    
 28.1           300            3507.9809      10252.255     -2199.3622     -2179.5466    
 28.2           300            3548.7317      10252.255     -2198.5855     -2178.7699    
 28.3           300            3340.266       10252.255     -2197.8137     -2177.9982    
 28.4           300            3367.9788      10252.255     -2201.0078     -2181.1922    
 28.5           300            3539.2935      10252.255     -2203.9119     -2184.0963    
 28.6           300            3354.649       10252.255     -2200.2435     -2180.4279    
 28.7           300            3473.9342      10252.255     -2199.7929     -2179.9773    
 28.8           300            3298.0113      10252.255     -2198.007      -2178.1914    
 28.9           300            3486.2017      10252.255     -2199.459      -2179.6434    
 29             300            3556.0531      10252.255     -2203.4051     -2183.5895    
 29.1           300            3440.7094      10252.255     -2201.7148     -2181.8992    
 29.2           300            3329.4479      10252.255     -2201.3805     -2181.5649    
 29.3           300            3335.4154      10252.255     -2198.543      -2178.7274    
 29.4           300            3432.8698      10252.255     -2198.4437     -2178.6281    
 29.5           300            3367.3207      10252.255     -2201.7041     -2181.8885    
 29.6           300            3291.5132      10252.255     -2202.6791     -2182.8635    
 29.7           300            3391.8682      10252.255     -2200.5559     -2180.7404    
 29.8           300            3372.2329      10252.255     -2200.2966     -2180.481     
 29.9           300            3311.4753      10252.255     -2199.2394     -2179.4238    
 30             300            3399.514       10252.255     -2203.7469     -2183.9313    
 30.1           300            3496.8285      10252.255     -2204.5518     -2184.7363    
 30.2           300            3573.4694      10252.255     -2199.5654     -2179.7498    
 30.3           300            3443.1831      10252.255     -2199.7738     -2179.9582    
 30.4           300            3294.4365      10252.255     -2196.1484     -2176.3328    
 30.5           300            3313.1439      10252.255     -2199.4544     -2179.6388    
 30.6           300            3608.2716      10252.255     -2201.2744     -2181.4589    
 30.7           300            3301.7261      10252.255     -2201.3138     -2181.4982    
 30.8           300            3502.2199      10252.255     -2201.6973     -2181.8818    
 30.9           300            3548.4704      10252.255     -2198.1655     -2178.3499    
 31             300            3519.0747      10252.255     -2198.0932     -2178.2776    
 31.1           300            3435.3305      10252.255     -2204.3364     -2184.5208    
 31.2           300            3448.412       10252.255     -2202.6292     -2182.8136    
 31.3           300            3481.4451      10252.255     -2199.6547     -2179.8391    
 31.4           300            3386.1384      10252.255     -2199.8984     -2180.0828    
 31.5           300            3301.2036      10252.255     -2197.3105     -2177.4949    
 31.6           300            3425.0313      10252.255     -2200.5784     -2180.7629    
 31.7           300            3498.0057      10252.255     -2203.0961     -2183.2805    
 31.8           300            3419.8661      10252.255     -2199.4574     -2179.6418    
 31.9           300            3384.7411      10252.255     -2200.7876     -2180.972     
 32             300            3336.8319      10252.255     -2196.6563     -2176.8407    
 32.1           300            3590.8285      10252.255     -2198.7074     -2178.8919    
 32.2           300            3430.0127      10252.255     -2203.4503     -2183.6347    
 32.3           300            3592.7024      10252.255     -2201.0985     -2181.2829    
 32.4           300            3527.223       10252.255     -2200.7027     -2180.8871    
 32.5           300            3664.5681      10252.255     -2198.5503     -2178.7347    
 32.6           300            3340.9053      10252.255     -2199.2729     -2179.4573    
 32.7           300            3501.3694      10252.255     -2201.4685     -2181.6529    
 32.8           300            3527.7577      10252.255     -2200.7405     -2180.9249    
 32.9           300            3478.657       10252.255     -2198.2113     -2178.3957    
 33             300            3496.2638      10252.255     -2198.0263     -2178.2107    
 33.1           300            3430.0777      10252.255     -2197.224      -2177.4084    
 33.2           300            3434.9137      10252.255     -2202.3113     -2182.4958    
 33.3           300            3553.211       10252.255     -2202.8676     -2183.0521    
 33.4           300            3497.5853      10252.255     -2201.6681     -2181.8525    
 33.5           300            3381.3566      10252.255     -2201.8635     -2182.0479    
 33.6           300            3510.4924      10252.255     -2195.8455     -2176.0299    
 33.7           300            3441.6756      10252.255     -2200.7675     -2180.952     
 33.8           300            3470.3784      10252.255     -2202.5        -2182.6844    
 33.9           300            3474.6327      10252.255     -2200.1236     -2180.308     
 34             300            3419.3186      10252.255     -2200.7277     -2180.9121    
 34.1           300            3319.2742      10252.255     -2198.6801     -2178.8646    
 34.2           300            3550.0046      10252.255     -2198.3856     -2178.57      
 34.3           300            3527.9525      10252.255     -2202.2272     -2182.4116    
 34.4           300            3542.548       10252.255     -2200.7795     -2180.9639    
 34.5           300            3342.4637      10252.255     -2201.335      -2181.5194    
 34.6           300            3492.4788      10252.255     -2199.7244     -2179.9088    
 34.7           300            3616.0416      10252.255     -2195.2855     -2175.47      
 34.8           300            3540.7193      10252.255     -2201.6883     -2181.8727    
 34.9           300            3619.8996      10252.255     -2202.3891     -2182.5735    
 35             300            3522.8239      10252.255     -2200.2153     -2180.3997    
 35.1           300            3540.4795      10252.255     -2201.2113     -2181.3957    
 35.2           300            3478.9604      10252.255     -2196.1522     -2176.3366    
 35.3           300            3322.8909      10252.255     -2200.2635     -2180.4479    
 35.4           300            3672.2099      10252.255     -2200.51       -2180.6944    
 35.5           300            3506.582       10252.255     -2201.0373     -2181.2217    
 35.6           300            3533.3501      10252.255     -2201.4198     -2181.6042    
 35.7           300            3455.0865      10252.255     -2199.1659     -2179.3503    
 35.8           300            3617.4872      10252.255     -2198.0526     -2178.237     
 35.9           300            3527.5574      10252.255     -2202.5653     -2182.7497    
 36             300            3589.3636      10252.255     -2201.573      -2181.7574    
 36.1           300            3616.9323      10252.255     -2199.3673     -2179.5517    
 36.2           300            3579.8726      10252.255     -2198.4681     -2178.6525    
 36.3           300            3565.2305      10252.255     -2195.4132     -2175.5976    
 36.4           300            3669.6433      10252.255     -2200.0198     -2180.2042    
 36.5           300            3534.7902      10252.255     -2201.7001     -2181.8845    
 36.6           300            3532.2623      10252.255     -2202.7433     -2182.9277    
 36.7           300            3673.0975      10252.255     -2200.2858     -2180.4702    
 36.8           300            3502.3319      10252.255     -2196.7182     -2176.9026    
 36.9           300            3609.3227      10252.255     -2199.1522     -2179.3366    
 37             300            3590.9941      10252.255     -2199.3516     -2179.536     
 37.1           300            3445.6257      10252.255     -2201.3379     -2181.5223    
 37.2           300            3419.366       10252.255     -2202.0535     -2182.2379    
 37.3           300            3568.4334      10252.255     -2197.4823     -2177.6668    
 37.4           300            3342.2134      10252.255     -2199.0328     -2179.2172    
 37.5           300            3597.3831      10252.255     -2202.2939     -2182.4783    
 37.6           300            3493.4037      10252.255     -2201.7337     -2181.9181    
 37.7           300            3483.7871      10252.255     -2203.0978     -2183.2822    
 37.8           300            3480.9721      10252.255     -2201.1614     -2181.3458    
 37.9           300            3471.6971      10252.255     -2196.4277     -2176.6121    
 38             300            3429.0887      10252.255     -2201.357      -2181.5414    
 38.1           300            3460.8985      10252.255     -2200.345      -2180.5294    
 38.2           300            3574.1698      10252.255     -2201.4821     -2181.6665    
 38.3           300            3592.616       10252.255     -2201.5844     -2181.7688    
 38.4           300            3405.3306      10252.255     -2196.3993     -2176.5837    
 38.5           300            3513.4791      10252.255     -2199.081      -2179.2654    
 38.6           300            3289.1819      10252.255     -2202.3444     -2182.5289    
 38.7           300            3498.8306      10252.255     -2201.0724     -2181.2568    
 38.8           300            3501.2884      10252.255     -2201.4957     -2181.6801    
 38.9           300            3450.4247      10252.255     -2200.5185     -2180.7029    
 39             300            3373.8135      10252.255     -2199.2774     -2179.4619    
 39.1           300            3478.7589      10252.255     -2202.6455     -2182.8299    
 39.2           300            3395.8374      10252.255     -2202.0162     -2182.2006    
 39.3           300            3458.4194      10252.255     -2202.0604     -2182.2448    
 39.4           300            3542.8667      10252.255     -2199.0678     -2179.2522    
 39.5           300            3388.3847      10252.255     -2195.5756     -2175.76      
 39.6           300            3413.5924      10252.255     -2199.9499     -2180.1343    
 39.7           300            3462.6031      10252.255     -2201.3335     -2181.5179    
 39.8           300            3488.0314      10252.255     -2203.2109     -2183.3954    
 39.9           300            3533.9408      10252.255     -2202.1107     -2182.2952    
 40             300            3363.9699      10252.255     -2199.4435     -2179.6279    
 40.1           300            3467.376       10252.255     -2200.2422     -2180.4266    
 40.2           300            3633.835       10252.255     -2200.6193     -2180.8037    
 40.3           300            3508.6718      10252.255     -2201.8482     -2182.0326    
 40.4           300            3629.1884      10252.255     -2200.6232     -2180.8076    
 40.5           300            3628.3304      10252.255     -2196.2275     -2176.4119    
 40.6           300            3628.1916      10252.255     -2195.273      -2175.4574    
 40.7           300            3489.7873      10252.255     -2199.6873     -2179.8717    
 40.8           300            3518.1513      10252.255     -2200.0769     -2180.2613    
 40.9           300            3638.4955      10252.255     -2202.8143     -2182.9987    
 41             300            3595.5859      10252.255     -2200.0287     -2180.2131    
 41.1           300            3501.5747      10252.255     -2196.6192     -2176.8037    
 41.2           300            3410.0851      10252.255     -2201.5767     -2181.7611    
 41.3           300            3479.0598      10252.255     -2200.7566     -2180.941     
 41.4           300            3631.7359      10252.255     -2202.1574     -2182.3418    
 41.5           300            3459.5516      10252.255     -2203.1494     -2183.3338    
 41.6           300            3437.549       10252.255     -2198.1904     -2178.3748    
 41.7           300            3577.5264      10252.255     -2198.6586     -2178.843     
 41.8           300            3672.0582      10252.255     -2198.6208     -2178.8053    
 41.9           300            3541.113       10252.255     -2199.7949     -2179.9793    
 42             300            3459.1331      10252.255     -2202.4796     -2182.664     
 42.1           300            3633.0313      10252.255     -2198.0077     -2178.1921    
 42.2           300            3583.8922      10252.255     -2196.0956     -2176.28      
 42.3           300            3377.679       10252.255     -2203.2502     -2183.4346    
 42.4           300            3454.6183      10252.255     -2201.7578     -2181.9423    
 42.5           300            3699.8614      10252.255     -2202.738      -2182.9224    
 42.6           300            3451.228       10252.255     -2201.9078     -2182.0922    
 42.7           300            3456.2655      10252.255     -2197.3139     -2177.4984    
 42.8           300            3449.8666      10252.255     -2198.6798     -2178.8642    
 42.9           300            3639.1978      10252.255     -2197.7975     -2177.9819    
 43             300            3612.9424      10252.255     -2200.3933     -2180.5777    
 43.1           300            3395.0602      10252.255     -2202.1761     -2182.3605    
 43.2           300            3462.1413      10252.255     -2198.8561     -2179.0405    
 43.3           300            3549.5667      10252.255     -2199.1525     -2179.3369    
 43.4           300            3427.681       10252.255     -2201.9445     -2182.1289    
 43.5           300            3406.1219      10252.255     -2202.6476     -2182.832     
 43.6           300            3431.5567      10252.255     -2203.3383     -2183.5227    
 43.7           300            3434.5485      10252.255     -2200.1658     -2180.3502    
 43.8           300            3420.188       10252.255     -2198.4448     -2178.6293    
 43.9           300            3406.4792      10252.255     -2200.9402     -2181.1246    
 44             300            3435.1184      10252.255     -2199.2795     -2179.4639    
 44.1           300            3575.6292      10252.255     -2203.1251     -2183.3095    
 44.2           300            3447.586       10252.255     -2199.7147     -2179.8991    
 44.3           300            3456.2302      10252.255     -2197.6636     -2177.848     
 44.4           300            3624.0813      10252.255     -2198.6618     -2178.8462    
 44.5           300            3513.9377      10252.255     -2198.4311     -2178.6156    
 44.6           300            3440.5351      10252.255     -2202.9596     -2183.144     
 44.7           300            3460.8086      10252.255     -2202.7622     -2182.9466    
 44.8           300            3537.083       10252.255     -2198.2846     -2178.469     
 44.9           300            3477.3183      10252.255     -2199.7722     -2179.9566    
 45             300            3413.6088      10252.255     -2202.042      -2182.2264    
 45.1           300            3557.7318      10252.255     -2200.9258     -2181.1102    
 45.2           300            3681.69        10252.255     -2202.4372     -2182.6216    
 45.3           300            3497.6941      10252.255     -2198.0424     -2178.2268    
 45.4           300            3443.1103      10252.255     -2196.2225     -2176.4069    
 45.5           300            3536.0423      10252.255     -2199.5119     -2179.6963    
 45.6           300            3642.1559      10252.255     -2198.3176     -2178.502     
 45.7           300            3505.2149      10252.255     -2204.7251     -2184.9095    
 45.8           300            3454.4902      10252.255     -2202.2413     -2182.4257    
 45.9           300            3555.7471      10252.255     -2197.3915     -2177.5759    
 46             300            3509.501       10252.255     -2199.0706     -2179.255     
 46.1           300            3460.2169      10252.255     -2199.8126     -2179.997     
 46.2           300            3509.0068      10252.255     -2200.7692     -2180.9536    
 46.3           300            3649.0085      10252.255     -2201.8032     -2181.9877    
 46.4           300            3626.4908      10252.255     -2198.6456     -2178.83      
 46.5           300            3588.6239      10252.255     -2198.2022     -2178.3866    
 46.6           300            3537.6171      10252.255     -2199.7989     -2179.9833    
 46.7           300            3519.0232      10252.255     -2200.0916     -2180.2761    
 46.8           300            3569.5652      10252.255     -2203.079      -2183.2634    
 46.9           300            3471.0528      10252.255     -2199.6572     -2179.8416    
 47             300            3342.3845      10252.255     -2198.1682     -2178.3526    
 47.1           300            3372.5739      10252.255     -2199.3507     -2179.5351    
 47.2           300            3336.5141      10252.255     -2200.4692     -2180.6536    
 47.3           300            3477.197       10252.255     -2203.4855     -2183.6699    
 47.4           300            3502.7929      10252.255     -2201.6023     -2181.7867    
 47.5           300            3519.6105      10252.255     -2200.4308     -2180.6152    
 47.6           300            3515.8853      10252.255     -2199.7423     -2179.9267    
 47.7           300            3476.9093      10252.255     -2199.29       -2179.4744    
 47.8           300            3394.9509      10252.255     -2201.6415     -2181.8259    
 47.9           300            3557.5505      10252.255     -2202.0749     -2182.2594    
 48             300            3353.6419      10252.255     -2199.1505     -2179.3349    
 48.1           300            3334.5567      10252.255     -2200.9175     -2181.102     
 48.2           300            3388.7673      10252.255     -2199.659      -2179.8435    
 48.3           300            3485.1963      10252.255     -2200.3795     -2180.5639    
 48.4           300            3482.191       10252.255     -2203.9682     -2184.1526    
 48.5           300            3520.9393      10252.255     -2198.4513     -2178.6357    
 48.6           300            3446.9871      10252.255     -2198.7753     -2178.9597    
 48.7           300            3460.3821      10252.255     -2199.6118     -2179.7962    
 48.8           300            3411.5781      10252.255     -2198.8864     -2179.0708    
 48.9           300            3441.0372      10252.255     -2203.3485     -2183.5329    
 49             300            3495.0376      10252.255     -2202.9449     -2183.1293    
 49.1           300            3532.0649      10252.255     -2200.3669     -2180.5514    
 49.2           300            3427.8055      10252.255     -2200.4277     -2180.6121    
 49.3           300            3412.0849      10252.255     -2198.7167     -2178.9011    
 49.4           300            3528.3938      10252.255     -2198.9968     -2179.1813    
 49.5           300            3537.7331      10252.255     -2202.3822     -2182.5666    
 49.6           300            3442.6819      10252.255     -2198.5201     -2178.7045    
 49.7           300            3591.4269      10252.255     -2198.4236     -2178.608     
 49.8           300            3526.6479      10252.255     -2199.7719     -2179.9563    
 49.9           300            3652.6782      10252.255     -2199.3303     -2179.5147    
 50             300            3664.0375      10252.255     -2202.6816     -2182.866     
Loop time of 80.7994 on 1 procs for 50000 steps with 512 atoms

Performance: 53.466 ns/day, 0.449 hours/ns, 618.817 timesteps/s
90.4% CPU use with 1 MPI tasks x no OpenMP threads

MPI task timing breakdown:
Section |  min time  |  avg time  |  max time  |%varavg| %total
---------------------------------------------------------------
Pair    | 77.649     | 77.649     | 77.649     |   0.0 | 96.10
Neigh   | 0          | 0          | 0          |   0.0 |  0.00
Comm    | 0.58775    | 0.58775    | 0.58775    |   0.0 |  0.73
Output  | 1.1747     | 1.1747     | 1.1747     |   0.0 |  1.45
Modify  | 1.0468     | 1.0468     | 1.0468     |   0.0 |  1.30
Other   |            | 0.3416     |            |       |  0.42

Nlocal:            512 ave         512 max         512 min
Histogram: 1 0 0 0 0 0 0 0 0 0
Nghost:           1450 ave        1450 max        1450 min
Histogram: 1 0 0 0 0 0 0 0 0 0
Neighs:              0 ave           0 max           0 min
Histogram: 1 0 0 0 0 0 0 0 0 0
FullNghs:        17408 ave       17408 max       17408 min
Histogram: 1 0 0 0 0 0 0 0 0 0

Total # of neighbors = 17408
Ave neighs/atom = 34
Neighbor list builds = 0
Dangerous builds = 0
undump          1
unfix		3

write_data S300K.dat
System init for write_data ...
write_restart S300K.rest
System init for write_restart ...
Total wall time: 0:01:20
