LAMMPS data file via write_data, version 23 Jun 2022, timestep = 200000

512 atoms
1 atom types

0 21.724 xlo xhi
0 21.724 ylo yhi
0 21.724 zlo zhi
0 0 0 xy xz yz

Masses

1 28.0855

Atoms # atomic

1 1 1.3682929283777785 4.045979558269132 1.3806789403820081 0 0 0
2 1 21.715684996972758 0.00033642109441619784 2.726564741661943 -1 0 0
3 1 1.3013320335551122 1.3034141704383324 4.034632483614239 0 0 0
4 1 0.0035663351532809876 2.793098518477646 21.703306187509046 0 0 -1
5 1 4.017942438226017 4.070292731432859 4.091991897932527 0 0 0
6 1 2.759864196552221 0.0411179469416307 0.037350519281278326 0 0 0
7 1 4.147610063938224 1.4137050313995223 1.266159327072678 0 0 0
8 1 2.7447744770725446 2.7611965783993253 2.6633445386388748 0 0 0
9 1 1.3376645915981944 4.044596812809482 6.790376346983462 0 0 0
10 1 21.710549558561162 21.69363469110558 8.145600141729672 -1 -1 0
11 1 1.3593838085212857 1.310666117712732 9.579929460581344 0 0 0
12 1 0.05207993135356929 2.664514296805418 5.426130216405765 0 0 0
13 1 4.064900876264082 4.086296585987951 9.613269755792185 0 0 0
14 1 2.6990416830554014 0.021451324196999823 5.386537465025799 0 0 0
15 1 3.997924897279676 1.3525348578564746 6.781913930352835 0 0 0
16 1 2.6954888178168375 2.755264344186061 8.186919778543936 0 0 0
17 1 1.3867560493631625 4.021506503254108 12.28948277572285 0 0 0
18 1 0.10846595314225774 21.704770590796294 13.581800971773458 0 -1 0
19 1 1.3025620326958867 1.3796423751449278 15.038602283419015 0 0 0
20 1 0.01827420479242494 2.7544579901757253 10.876983603004602 0 0 0
21 1 4.00719111572675 4.051114540700774 14.856541216186253 0 0 0
22 1 2.696827721728827 21.58790526295872 10.93132434203432 0 -1 0
23 1 3.9209006671106006 1.3014216946446275 12.22192560301738 0 0 0
24 1 2.6317417173293043 2.6490836938493527 13.610353397602335 0 0 0
25 1 1.3825986388625096 4.072577981775062 17.665777954095176 0 0 0
26 1 0.008703456353290572 0.03261652034146249 19.035792199555356 0 0 0
27 1 1.3672075305306342 1.4080471895643891 20.440705038703292 0 0 0
28 1 21.721601411557838 2.7568118471034175 16.43627274609011 -1 0 0
29 1 4.08708558061769 4.1402546752623985 20.483660500196603 0 0 0
30 1 2.693709592389557 0.00020740885018361192 16.211929699234005 0 0 0
31 1 3.9839857970475223 1.4402976301963315 17.674212949182653 0 0 0
32 1 2.675406964937756 2.8139583497236176 19.122462619327045 0 0 0
33 1 1.399984446764081 9.42400207157961 1.334169480891338 0 0 0
34 1 21.682523719735542 5.357094709232202 2.698949635882334 -1 0 0
35 1 1.2719920914534055 6.792232702150031 4.1015791150626 0 0 0
36 1 0.009110939369062534 8.038021541545488 21.722486117462182 0 0 -1
37 1 3.9845915680134487 9.433576435664866 4.190999568183083 0 0 0
38 1 2.640428896688655 5.43973911334026 21.698204537870044 0 0 -1
39 1 4.022071166723734 6.72034777185673 1.4485872584132815 0 0 0
40 1 2.666699176402014 8.115681329776962 2.804093591032123 0 0 0
41 1 1.199130448193376 9.59220940698795 6.85612214161967 0 0 0
42 1 0.011517820275272518 5.3175835642232 8.108848577132337 0 0 0
43 1 1.3914540562868059 6.709454192364095 9.332708130478787 0 0 0
44 1 21.697222400351034 8.182316905605935 5.501985269995234 -1 0 0
45 1 4.1388823313323675 9.47299483764333 9.59240860664105 0 0 0
46 1 2.6494826685103905 5.445103540298159 5.4497473821710996 0 0 0
47 1 4.030305093393043 6.797951665004761 6.80972069621566 0 0 0
48 1 2.645535333256139 8.267232452042492 8.154947246349098 0 0 0
49 1 1.3418914515234028 9.4603992660082 12.154648425573503 0 0 0
50 1 21.65912639143737 5.283783176540122 13.659293741550933 -1 0 0
51 1 1.2828401336406716 6.696660181777129 14.957229385322046 0 0 0
52 1 0.05268396774759379 8.095263207214302 10.684073014894567 0 0 0
53 1 4.086810205601992 9.46122399405399 14.95371454235464 0 0 0
54 1 2.7335338242143017 5.487795630213548 10.889656019435705 0 0 0
55 1 4.07783536394977 6.801383315427842 12.272438788919079 0 0 0
56 1 2.703825338816224 8.118449483235517 13.605182076065619 0 0 0
57 1 1.3299835432423914 9.59909107820926 17.540921418981515 0 0 0
58 1 21.648992724050775 5.4497844505234765 18.944943988226004 -1 0 0
59 1 1.316223804705627 6.819824277231617 20.33591940863379 0 0 0
60 1 21.70670781995116 8.136763628049957 16.231884548830312 -1 0 0
61 1 4.095662123432908 9.569231744584402 20.33219321935821 0 0 0
62 1 2.7069506369569396 5.396422622016353 16.289435892055806 0 0 0
63 1 3.983530209850882 6.892215844695925 17.64896843619404 0 0 0
64 1 2.7351378100433146 8.249530659126162 18.97589221162618 0 0 0
65 1 1.3816217401920525 14.926388369618032 1.3735955395355084 0 0 0
66 1 21.721095147939128 10.828390001224696 2.7155338710502632 -1 0 0
67 1 1.368191479453082 12.19243802686231 3.971328203839599 0 0 0
68 1 0.033454892688043664 13.568971452003844 21.623074182176005 0 0 -1
69 1 4.0731021716643 14.941976438538378 4.009068451061161 0 0 0
70 1 2.6577283214905627 10.899794249605069 21.708276964760902 0 0 -1
71 1 4.153820584107142 12.037955310949783 1.2415963399407817 0 0 0
72 1 2.806385641522006 13.497982960774518 2.6486993624754276 0 0 0
73 1 1.2371549964998352 14.850524147397488 6.694386298341623 0 0 0
74 1 21.673416866945903 10.981012309948703 8.223221215434242 -1 0 0
75 1 1.3321605345725764 12.263789808147111 9.496749693603196 0 0 0
76 1 21.6865619062692 13.510648337403216 5.298476903731995 -1 0 0
77 1 3.9968941740920214 14.88932473089027 9.43867665795457 0 0 0
78 1 2.571306225382716 10.787852237704694 5.458537706943809 0 0 0
79 1 4.040646908747109 12.238064567397815 6.704198977846607 0 0 0
80 1 2.678604078547213 13.548765551791472 8.00917867873767 0 0 0
81 1 1.3956826699557312 14.952044126663635 12.216385981358526 0 0 0
82 1 21.657121498976295 10.793296965361952 13.566120307465274 -1 0 0
83 1 1.2425662049371897 12.325362472721032 14.903251356379238 0 0 0
84 1 0.01770933555654689 13.539218404038348 10.845544602522834 0 0 0
85 1 4.048394888062925 14.927632654684336 14.948043154929653 0 0 0
86 1 2.693764147124306 10.845614847476808 10.879646990169503 0 0 0
87 1 4.0564372238008035 12.225377174359924 12.169105510076568 0 0 0
88 1 2.7332193113924452 13.535194830819854 13.536295991825394 0 0 0
89 1 1.2887338682845324 14.88842016748357 17.66791282481459 0 0 0
90 1 21.544792229754496 10.856906665244825 19.010038922955946 -1 0 0
91 1 1.3683885138145218 12.15145490168244 20.315589937737332 0 0 0
92 1 21.614920470892244 13.617543237678657 16.3217579253975 -1 0 0
93 1 4.145362205150879 14.79465627984176 20.258534811975448 0 0 0
94 1 2.7745349152877687 10.933095365802926 16.207356222412624 0 0 0
95 1 4.107640174120839 12.261007196139033 17.574124373951445 0 0 0
96 1 2.7163495008622385 13.523327817458558 18.94428752225615 0 0 0
97 1 1.39158577592175 20.40073026566006 1.3588324852888758 0 0 0
98 1 21.65381573150632 16.263190562622786 2.6585799710827676 -1 0 0
99 1 1.3602098425987492 17.69003225004595 4.036930006778729 0 0 0
100 1 0.0410312253803119 18.997975928015354 21.643002391056523 0 0 -1
101 1 4.099298160882966 20.366582030264404 3.9578125214776216 0 0 0
102 1 2.77139306733882 16.25390465750614 21.636794203427748 0 0 -1
103 1 4.144656463722929 17.570018633872994 1.3716252249207956 0 0 0
104 1 2.8079495886480657 18.96831367726107 2.6572539612524806 0 0 0
105 1 1.313563199059337 20.313789418409222 6.766169588532612 0 0 0
106 1 0.017984297667685733 16.32393222730144 8.120306991521478 0 0 0
107 1 1.3926681644626173 17.722274079291193 9.51086839102653 0 0 0
108 1 21.697642442265302 19.01115977369182 5.41692815300906 -1 0 0
109 1 4.071945660181109 20.37480822166508 9.464029035257743 0 0 0
110 1 2.6373108736128175 16.202889955665274 5.3634148554681005 0 0 0
111 1 4.034458589849423 17.546613276423944 6.721025470912896 0 0 0
112 1 2.7577796593150956 19.046180235966833 8.078978036860972 0 0 0
113 1 1.4223831623973935 20.310647296256576 12.262024807654686 0 0 0
114 1 21.665744736073844 16.30898264279327 13.584158330369293 -1 0 0
115 1 1.3535511954714965 17.633978586922957 14.94813758217328 0 0 0
116 1 21.689867472491578 19.023231677632662 10.883031000047248 -1 0 0
117 1 4.055268551117333 20.33651245562445 14.945015792151848 0 0 0
118 1 2.744256786656164 16.261289507474636 10.87307798684163 0 0 0
119 1 4.029824541258945 17.654346959495072 12.151714181487161 0 0 0
120 1 2.7690946076869145 18.951878390301157 13.640355784413172 0 0 0
121 1 1.3933642470079814 20.437161825047077 17.745843521272857 0 0 0
122 1 21.69640564995176 16.28209824992045 18.970974000926194 -1 0 0
123 1 1.3474665361226879 17.6061667280018 20.332071971740262 0 0 0
124 1 0.11662441792438188 19.045429407250314 16.3320638955605 0 0 0
125 1 4.0142788291355345 20.4881482977575 20.3262710565837 0 0 0
126 1 2.7368914872345464 16.226587833924835 16.290831606628657 0 0 0
127 1 4.071357631862932 17.67322134293216 17.64366047760611 0 0 0
128 1 2.690549017500574 19.055872001765792 19.043808718737154 0 0 0
129 1 6.863125227405129 4.195902385616309 1.3351875508592514 0 0 0
130 1 5.404146284609361 0.06370120124822674 2.647586140611305 0 0 0
131 1 6.718163951010447 1.387699353597105 4.078681513455804 0 0 0
132 1 5.615091219735818 2.75923468055036 21.698826409508357 0 0 -1
133 1 9.469144466035802 4.077191925853882 4.185252059052791 0 0 0
134 1 8.081230756317284 0.15289996404365136 0.06002190046202027 0 0 0
135 1 9.394671606186273 1.5111386033572405 1.4650630259436248 0 0 0
136 1 8.056359563903431 2.867032530982567 2.777863909722483 0 0 0
137 1 6.844499924061362 3.964101932531609 6.839552696484607 0 0 0
138 1 5.415132102831612 0.012321412994691172 8.166295122898097 0 0 0
139 1 6.797925957464563 1.3689051215252288 9.558753209986731 0 0 0
140 1 5.441289740234014 2.7435279245940523 5.393806987812668 0 0 0
141 1 9.660389619919282 4.032213071111243 9.467843217719734 0 0 0
142 1 8.1120232142292 0.07413732904076135 5.4769881069468 0 0 0
143 1 9.573258239454685 1.3616488025837623 6.825486601394988 0 0 0
144 1 8.225162618257848 2.623933184794944 8.189906994932244 0 0 0
145 1 6.767861541411155 3.9760680393431524 12.203514874571765 0 0 0
146 1 5.405646487918179 21.69888953646369 13.563508849112367 0 -1 0
147 1 6.732594396207414 1.3975176215145733 14.945823232273458 0 0 0
148 1 5.3448271186073315 2.6290490500489283 10.925026217510267 0 0 0
149 1 9.506392460060981 4.12722708303893 14.818081193212375 0 0 0
150 1 8.085015967958247 21.71873369191695 10.893855626230607 0 -1 0
151 1 9.419929900700875 1.3540308516228163 12.165632365669577 0 0 0
152 1 8.130224321353289 2.725877353947459 13.566909658330152 0 0 0
153 1 6.796032077297637 4.192682757552497 17.61086677107982 0 0 0
154 1 5.4187721971613465 0.07068816058828391 18.94002522596003 0 0 0
155 1 6.82788592847295 1.4106782478533637 20.298096602124485 0 0 0
156 1 5.405074353326058 2.7677632039913433 16.290487499823072 0 0 0
157 1 9.516424070515507 4.19909451121887 20.32958168352196 0 0 0
158 1 8.268388773646059 0.025662628652340536 16.25834652514144 0 0 0
159 1 9.47051509609235 1.3890942649823588 17.71589811249683 0 0 0
160 1 8.17132415562623 2.8618766648769163 19.032518206851506 0 0 0
161 1 6.765101578265355 9.434895761669537 1.3898737709330404 0 0 0
162 1 5.418514201267838 5.461046754767044 2.769083811727315 0 0 0
163 1 6.891032348772404 6.723314545805255 4.297589272510745 0 0 0
164 1 5.260456066623298 8.144999503934205 0.11161287248954165 0 0 0
165 1 9.435815513524256 9.297892160760469 4.067726272835853 0 0 0
166 1 8.07820574903422 5.600183573275958 21.628955267178984 0 0 -1
167 1 9.547908526352575 6.675469005074493 1.3086219519886086 0 0 0
168 1 8.156548774811405 7.978068399034808 2.6243407284029026 0 0 0
169 1 6.807089236366656 9.516100745580689 6.881866443962843 0 0 0
170 1 5.426922034831755 5.40132774984686 8.114423638225588 0 0 0
171 1 6.796839919206971 6.685425041674312 9.534141286232222 0 0 0
172 1 5.4334473337660985 8.134614807952905 5.497431738601772 0 0 0
173 1 9.498788712633042 9.400848625086853 9.57646885778388 0 0 0
174 1 8.23711556983621 5.359204014536889 5.73172898322333 0 0 0
175 1 9.536162819761156 6.813777989133281 7.001607447822906 0 0 0
176 1 8.088557442389295 8.135902380292269 8.285265713896937 0 0 0
177 1 6.768257863259789 9.559196438382559 12.244019642443325 0 0 0
178 1 5.467135469692365 5.4032036006010715 13.515212789395349 0 0 0
179 1 6.808639421424033 6.765056756348168 14.98328462608651 0 0 0
180 1 5.435061552314909 8.079161850942874 10.984675514315274 0 0 0
181 1 9.451579361857602 9.551016247368775 14.876205155270917 0 0 0
182 1 8.20048279444609 5.2918009563303485 10.808443515515075 0 0 0
183 1 9.527375810744529 6.7070285041568525 12.29133986117551 0 0 0
184 1 8.129529552491464 8.156635345720062 13.57179748654034 0 0 0
185 1 6.846085493531481 9.476779898515455 17.54339643281085 0 0 0
186 1 5.292963347840119 5.52038823079488 18.979532516162955 0 0 0
187 1 6.653997476808272 6.900487645623088 20.288092494839375 0 0 0
188 1 5.50149141120557 8.102926590620902 16.291376338800386 0 0 0
189 1 9.554758020677767 9.541924269971464 20.312104681719344 0 0 0
190 1 8.23335023252339 5.427976372976795 16.301102724266123 0 0 0
191 1 9.5860157026382 6.838463719468156 17.645504090197885 0 0 0
192 1 8.173095134350076 8.211121495409943 18.959222045757127 0 0 0
193 1 6.756064423033196 14.948827706100547 1.2707015770526047 0 0 0
194 1 5.4441746634157795 10.750517319024837 2.8411356065740407 0 0 0
195 1 6.8478468057130355 12.206242646945787 4.051115630445913 0 0 0
196 1 5.464764013168244 13.477583842741025 21.68653132162143 0 0 -1
197 1 9.460166083731398 14.91183326963602 3.9148528548191606 0 0 0
198 1 8.206242634998803 10.855389063793023 0.02357828080296559 0 0 0
199 1 9.53444200933241 12.237176086356865 1.283468156958201 0 0 0
200 1 8.163039934985818 13.55363405624362 2.622424515477784 0 0 0
201 1 6.738349213110221 14.90723784132706 6.799426927946044 0 0 0
202 1 5.367827060741644 10.87534973419326 8.079118219101005 0 0 0
203 1 6.904303276188289 12.22781402217041 9.365376584729615 0 0 0
204 1 5.475258424547038 13.590723732657823 5.325854838160015 0 0 0
205 1 9.51928590353336 15.016753872074668 9.5454095978163 0 0 0
206 1 8.161750148085792 10.750503505049117 5.411091168268653 0 0 0
207 1 9.457246995085468 12.153374073237057 6.702063699418247 0 0 0
208 1 8.212561313646978 13.650707641687143 8.118424857539724 0 0 0
209 1 6.733660120409715 14.90795766773979 12.150965566843054 0 0 0
210 1 5.396552969852183 10.919789304126116 13.60313515729133 0 0 0
211 1 6.826203324458691 12.277080562116664 14.887870895743834 0 0 0
212 1 5.402613879156102 13.527183194705769 10.728019060838227 0 0 0
213 1 9.435339047313024 14.998100965196299 14.917465774563906 0 0 0
214 1 8.133421210867178 10.843825172077143 10.770616760773217 0 0 0
215 1 9.55373818155478 12.18419259369338 12.14445852996741 0 0 0
216 1 8.195155924341446 13.557542383615653 13.48731810003601 0 0 0
217 1 6.6484007981861515 14.916348714935342 17.780688767482502 0 0 0
218 1 5.515280029906884 10.906580957552338 18.938758690254268 0 0 0
219 1 6.874238330729901 12.123158172056005 20.33693924409057 0 0 0
220 1 5.472640789633401 13.601149713993188 16.226289894699498 0 0 0
221 1 9.491964507687621 14.898156476372106 20.321555264012986 0 0 0
222 1 8.183069696681434 10.96902149257668 16.241621025380862 0 0 0
223 1 9.482163613373581 12.317395537845389 17.685493489602308 0 0 0
224 1 8.163042144730309 13.55328816881592 18.99287270648505 0 0 0
225 1 6.782445863683295 20.400219075681452 1.3818556892984617 0 0 0
226 1 5.541175458673586 16.312150319067104 2.7378394991690036 0 0 0
227 1 6.936140982998007 17.715068360134236 4.125799388390141 0 0 0
228 1 5.457265120807323 19.017655968500932 21.68522214882068 0 0 -1
229 1 9.515071885581715 20.466224074844114 4.112038046881348 0 0 0
230 1 8.189597102675696 16.296945382078558 0.011487991094679798 0 0 0
231 1 9.511437406747257 17.791457031474827 1.298712384882894 0 0 0
232 1 8.195269974274332 19.084182203689405 2.6533493038112854 0 0 0
233 1 6.745035362140706 20.472218478430392 6.825631420898337 0 0 0
234 1 5.37521966517429 16.270787370050584 8.15236407643478 0 0 0
235 1 6.7479241288933265 17.759724395630695 9.417581101023378 0 0 0
236 1 5.434143592339259 19.02780547317357 5.406871478464048 0 0 0
237 1 9.512653660628686 20.42160243749616 9.597435750055537 0 0 0
238 1 8.180465144150128 16.184261787808747 5.45813165683154 0 0 0
239 1 9.568059932723331 17.611067356164607 6.700108842312951 0 0 0
240 1 8.199404184388293 19.041540364885346 8.105042812180212 0 0 0
241 1 6.795679481800002 20.30033399292075 12.20299131183322 0 0 0
242 1 5.384628133334531 16.23877148409945 13.55313828271609 0 0 0
243 1 6.810133376335223 17.666111051860387 14.938926479051528 0 0 0
244 1 5.447463540676803 19.04733529983193 10.809571856947015 0 0 0
245 1 9.553620656250216 20.34241958626335 14.80452106910018 0 0 0
246 1 8.070467709794123 16.357450545374505 10.760273945674234 0 0 0
247 1 9.469781508149023 17.539680601046538 12.201960894565042 0 0 0
248 1 8.129051982424716 18.98877539617404 13.597202314407097 0 0 0
249 1 6.716199670582987 20.507252325880714 17.631882376171365 0 0 0
250 1 5.418862543677634 16.346858847400036 19.11679507821387 0 0 0
251 1 6.917741354028467 17.70048588671043 20.352920729064593 0 0 0
252 1 5.4620831238529375 19.055085453078394 16.364679217442955 0 0 0
253 1 9.453796513448989 20.485860242739392 20.406981555960208 0 0 0
254 1 7.984397538981599 16.309501738189834 16.333965874750337 0 0 0
255 1 9.446405236057439 17.63901494828487 17.6569019415546 0 0 0
256 1 8.122691208711716 19.138627171915758 18.99089679666384 0 0 0
257 1 12.083144126701033 4.0637697894145495 1.4215946912784643 0 0 0
258 1 10.911418867612525 0.14906401560244917 2.726460842214732 0 0 0
259 1 12.252535568238951 1.4954589501010964 4.10796407763035 0 0 0
260 1 10.745254918880338 2.8052440835075827 21.68176368519313 0 0 -1
261 1 14.997481236547074 4.106162566375353 4.182292515304078 0 0 0
262 1 13.578270635460436 0.06441297226870386 0.09686266311308232 0 0 0
263 1 14.898405772868314 1.4334517189430092 1.4106054717114898 0 0 0
264 1 13.575609556851676 2.853006331287768 2.7882464962279108 0 0 0
265 1 12.262801249030405 4.0459181800150485 6.843460938704722 0 0 0
266 1 10.837066171309456 21.64264635320369 8.074128085758302 0 -1 0
267 1 12.273778228968654 1.3401715479998113 9.544035484324974 0 0 0
268 1 10.8577311314016 2.729504313118068 5.5005761421690575 0 0 0
269 1 15.036934351223692 4.1583599252784715 9.56546059103836 0 0 0
270 1 13.617087742934675 0.001185791994527896 5.530555039262483 0 0 0
271 1 15.065887727812743 1.3222655792078406 6.903149761636874 0 0 0
272 1 13.732558649189372 2.683983624054852 8.188383345570072 0 0 0
273 1 12.307970319374478 4.0868229274333565 12.102187834054979 0 0 0
274 1 10.908732616686319 0.12008050791447768 13.687862866243357 0 0 0
275 1 12.257847687441869 1.3638931072843654 15.09424640374126 0 0 0
276 1 10.830778250865047 2.6576372545659734 10.831151301699274 0 0 0
277 1 14.994845721300226 4.105039458720421 14.90619593801748 0 0 0
278 1 13.627028284853663 21.723109698068072 10.961093329634279 0 -1 0
279 1 14.885658868121826 1.3907499223101478 12.290201601869716 0 0 0
280 1 13.582026664032545 2.7090653889741025 13.603104962569434 0 0 0
281 1 12.243258621600841 4.142246628085653 17.64117373942601 0 0 0
282 1 10.837862820805636 21.720668460201285 19.043366243896195 0 -1 0
283 1 12.232277285747791 1.4184896260146287 20.31354823250084 0 0 0
284 1 10.825048640672584 2.7000810372238906 16.353218816380405 0 0 0
285 1 14.947235665409435 4.0535027068927265 20.383980551912142 0 0 0
286 1 13.674690570443873 21.701789362739873 16.24200466844527 0 -1 0
287 1 14.964797138512395 1.4144028512193911 17.594634608969958 0 0 0
288 1 13.559950528934856 2.724369910244448 18.979877227166725 0 0 0
289 1 12.260087986475195 9.487622697855532 1.4265518977655995 0 0 0
290 1 10.795266013333135 5.375721564007566 2.7254359206802117 0 0 0
291 1 12.183567521482855 6.681803896671432 4.021610145505281 0 0 0
292 1 10.825484388222113 8.122699496239377 0.060253891940441416 0 0 0
293 1 14.923544015515926 9.47623888839779 3.9631547871307045 0 0 0
294 1 13.50264322495925 5.48489590753377 0.009009897645726095 0 0 0
295 1 14.844626647525331 6.723610055843618 1.4004653094271002 0 0 0
296 1 13.59853665606595 8.107154296553839 2.743615409930946 0 0 0
297 1 12.201594047742176 9.358483619008073 6.738144135657474 0 0 0
298 1 10.995331416923289 5.477834375837393 8.27391435772788 0 0 0
299 1 12.306298889136468 6.823586796617686 9.66732637808967 0 0 0
300 1 10.794244257813524 8.012745825352498 5.4470779124591155 0 0 0
301 1 14.916811589150512 9.527120999079907 9.530960968611975 0 0 0
302 1 13.564215795616501 5.418830715763228 5.422173304004495 0 0 0
303 1 14.87764372042277 6.793981037936964 6.811624840268258 0 0 0
304 1 13.518374416278295 8.147826320483734 8.243694402134969 0 0 0
305 1 12.234532210382318 9.500555429949038 12.305063258754688 0 0 0
306 1 10.961018441299878 5.377061702168915 13.502948397956168 0 0 0
307 1 12.237628807418313 6.783604210690115 14.83327455128727 0 0 0
308 1 10.796623617084084 8.122598933937184 11.023267110401253 0 0 0
309 1 14.9078506647347 9.52391552757612 14.9074926725614 0 0 0
310 1 13.728187608263 5.484380848804803 10.95193092376887 0 0 0
311 1 14.939177718605018 6.8103117926911985 12.359215464058142 0 0 0
312 1 13.53186442723231 8.170252978284815 13.619035945464622 0 0 0
313 1 12.36069932310161 9.476325997748585 17.66456276647383 0 0 0
314 1 10.93404866581944 5.533212307050249 19.041159664845484 0 0 0
315 1 12.291008603503645 6.933217581291674 20.3195295738462 0 0 0
316 1 10.842160881949262 8.19960374284322 16.262688736956623 0 0 0
317 1 15.053971006297001 9.436209582578943 20.440895240123584 0 0 0
318 1 13.564224616455705 5.3864950029503245 16.216764331852403 0 0 0
319 1 14.941020034284861 6.685517092684841 17.55292420902779 0 0 0
320 1 13.78845879343572 8.134240264473227 19.02991487562101 0 0 0
321 1 12.249460109591864 14.930683832022748 1.3963459482722074 0 0 0
322 1 10.897829953149044 10.856230668028514 2.7442010186214336 0 0 0
323 1 12.222931101059638 12.195884353484423 4.1485618703697655 0 0 0
324 1 10.872697734810739 13.651022833134341 21.683208805595168 0 0 -1
325 1 14.978101110168422 14.948718702488472 4.005003850494884 0 0 0
326 1 13.51378581894071 10.799459465795024 21.61828743143989 0 0 -1
327 1 14.867458189204374 12.206763774005168 1.2483568187703624 0 0 0
328 1 13.51769022260637 13.552697404326482 2.785360559781325 0 0 0
329 1 12.147464859596921 15.016056215482175 6.654493828823713 0 0 0
330 1 10.83782375280532 10.745977878448452 8.137657540691066 0 0 0
331 1 12.231229057898958 12.232857667975512 9.40238726226282 0 0 0
332 1 10.821356808945952 13.576744292593574 5.387296346884551 0 0 0
333 1 14.858531968942112 14.920046378351206 9.563852801328869 0 0 0
334 1 13.443716492465146 10.771091360811422 5.471120809789435 0 0 0
335 1 14.926145122189931 12.217827956818113 6.752120917908059 0 0 0
336 1 13.550845527024654 13.633797058276134 8.075426725558895 0 0 0
337 1 12.125102123991493 14.963799476077474 12.145093970228434 0 0 0
338 1 10.862671302204912 10.840506067637884 13.58133209288775 0 0 0
339 1 12.180061234032234 12.277470884673859 14.959635132462875 0 0 0
340 1 10.889490011998971 13.611310457741427 10.761924022018215 0 0 0
341 1 14.844657269577246 14.914218634697702 14.864287306165089 0 0 0
342 1 13.531215505857595 10.88256296157177 10.841597007409403 0 0 0
343 1 14.867441189868305 12.221949247121204 12.198155357327712 0 0 0
344 1 13.564113550831038 13.57385648453809 13.503987060852035 0 0 0
345 1 12.186208663097469 14.924702924351251 17.686835009978417 0 0 0
346 1 10.899730166421094 10.876773923435067 19.018637906282844 0 0 0
347 1 12.217241791288314 12.261646901700605 20.287821810813874 0 0 0
348 1 10.802897884566555 13.67354077934949 16.311993750381088 0 0 0
349 1 14.972304811855 14.964728950797447 20.33038509178863 0 0 0
350 1 13.568335996922716 10.92203939205553 16.29585507178425 0 0 0
351 1 14.91681802452414 12.24613481567884 17.733682326062354 0 0 0
352 1 13.623692800441997 13.624311612128272 19.06772859387573 0 0 0
353 1 12.209060185658812 20.359211440519164 1.4564462530514295 0 0 0
354 1 10.84692489651745 16.361039941713596 2.6293405657927624 0 0 0
355 1 12.274523205298092 17.68845987132824 4.019743391120898 0 0 0
356 1 10.830282311328531 19.08340179529085 0.04617597241771013 0 0 0
357 1 15.032189629783815 20.343448662828777 4.152828354263043 0 0 0
358 1 13.627372319225367 16.18762681960864 0.1400783326126582 0 0 0
359 1 15.032627165030654 17.625861997667883 1.3343123229372236 0 0 0
360 1 13.612146124545406 18.99192651650245 2.741466863400203 0 0 0
361 1 12.2770172174333 20.328156347815757 6.778282762771522 0 0 0
362 1 10.891463875533113 16.33791334385199 8.061639715602116 0 0 0
363 1 12.174965912393644 17.616184693677425 9.494376078082347 0 0 0
364 1 10.939995934496151 19.082809272511575 5.296946350842291 0 0 0
365 1 14.968348463687015 20.31342631233696 9.620275830383001 0 0 0
366 1 13.586516113611639 16.283357188679997 5.401125858487691 0 0 0
367 1 15.01410886089154 17.6170957569343 6.791866820614221 0 0 0
368 1 13.545562882276503 18.993925102425013 8.173985349293309 0 0 0
369 1 12.216636016998335 20.43691110559901 12.340697501760541 0 0 0
370 1 10.917957554197383 16.29711471337001 13.614538917134329 0 0 0
371 1 12.121719988082686 17.68503425766167 15.01146534196906 0 0 0
372 1 10.894529873173255 18.896738922072444 10.91068305472151 0 0 0
373 1 15.00293168981907 20.367620140750766 14.880538879166652 0 0 0
374 1 13.603723465706809 16.2939746231753 10.873923038771814 0 0 0
375 1 14.97272608685522 17.69337014429911 12.33063739376497 0 0 0
376 1 13.521621029566703 18.976773976096663 13.713827047737276 0 0 0
377 1 12.22270469617857 20.43739996307726 17.652734820359782 0 0 0
378 1 10.775738892647254 16.449458456048212 19.06820398781216 0 0 0
379 1 12.28099941887581 17.65677103211893 20.508472955690234 0 0 0
380 1 10.788502295665488 19.048494470371736 16.402262745387404 0 0 0
381 1 14.913494012381182 20.47226484657899 20.459882805224893 0 0 0
382 1 13.535469932188853 16.289550282726484 16.236909465176094 0 0 0
383 1 14.872365730431605 17.7403886700181 17.696847273389547 0 0 0
384 1 13.523308413088227 19.10681951194288 19.097323618524726 0 0 0
385 1 17.648050795161655 4.134429462621761 1.378598083316636 0 0 0
386 1 16.246746659054157 21.71775497425659 2.7218471769950203 0 -1 0
387 1 17.77943992930998 1.380978243171877 3.9982546386646822 0 0 0
388 1 16.277247034907997 2.7042197428393164 0.07138338825640807 0 0 0
389 1 20.34370020507795 4.091479921159461 4.0612192699075065 0 0 0
390 1 19.024596454714803 21.704688555350035 0.0011469309333424715 0 -1 0
391 1 20.385942208408945 1.4347212876457225 1.3839018212597463 0 0 0
392 1 19.01110016883156 2.7404626231393885 2.6537868917201464 0 0 0
393 1 17.58650761793851 4.143827454092368 6.865998369195281 0 0 0
394 1 16.328421085307816 21.692158360136116 8.251191532998124 0 -1 0
395 1 17.65120426875002 1.35483260231153 9.539790481725875 0 0 0
396 1 16.40503054835415 2.662135001098946 5.45736652099459 0 0 0
397 1 20.39532284463586 4.025450503832307 9.551696158190971 0 0 0
398 1 19.03406457393158 21.678649516171703 5.485765741630425 0 -1 0
399 1 20.30468968649089 1.3485766259567153 6.828755377748075 0 0 0
400 1 18.951034987637758 2.683438065529176 8.19938143321666 0 0 0
401 1 17.685825392069052 4.043037581378801 12.248080782548701 0 0 0
402 1 16.302077195142832 21.697987061115512 13.445802648172812 0 -1 0
403 1 17.72210492569586 1.2060117239802672 14.938655839320116 0 0 0
404 1 16.316832938613235 2.719778922136293 10.913971832917348 0 0 0
405 1 20.312277652515036 4.010269889450501 15.109276945392734 0 0 0
406 1 18.99195900966349 0.033130194567374954 10.938609188159338 0 0 0
407 1 20.43613086665645 1.4387909086565103 12.26942614361552 0 0 0
408 1 19.007557487755562 2.701882226004976 13.624595662747728 0 0 0
409 1 17.525038266043033 4.088538540165292 17.68423515443388 0 0 0
410 1 16.3316107558611 0.03684822797317346 18.96709049132336 0 0 0
411 1 17.653891251291395 1.3652201026193032 20.34982288388672 0 0 0
412 1 16.32601543548337 2.6180626654226935 16.291659899289062 0 0 0
413 1 20.27772385017887 4.130785686541486 20.310226503503067 0 0 0
414 1 19.197436405659648 21.68581870791463 16.37305525901362 0 -1 0
415 1 20.38129839832469 1.4178144705004276 17.643615867273155 0 0 0
416 1 18.91847994133343 2.7852432951409334 18.96120329754358 0 0 0
417 1 17.682190194211717 9.474250009141207 1.3583864045628813 0 0 0
418 1 16.28638793155248 5.413288877311486 2.723294846528829 0 0 0
419 1 17.58100169043487 6.7858536202605535 4.04339141446571 0 0 0
420 1 16.300636159036294 8.09519386575055 0.1976216036918099 0 0 0
421 1 20.43875194532815 9.550268939772824 4.1199324368956844 0 0 0
422 1 19.03037132435893 5.411696508538505 0.05413815885856656 0 0 0
423 1 20.285594632994805 6.8272904331498445 1.4942508380457002 0 0 0
424 1 18.96371184433933 8.209674327867956 2.808073416162276 0 0 0
425 1 17.631876676174173 9.538261279182526 6.842483977864024 0 0 0
426 1 16.20687338982067 5.517880080780479 8.211543131241937 0 0 0
427 1 17.68283008505539 6.743533695145079 9.537862453541601 0 0 0
428 1 16.290138354296545 8.172907341921249 5.510182632672508 0 0 0
429 1 20.34197651012683 9.533658016783205 9.493183956469286 0 0 0
430 1 18.932080229622215 5.382459905785993 5.389227170356114 0 0 0
431 1 20.37859399922727 6.669485872829189 6.832019716584465 0 0 0
432 1 19.00613192075283 8.163283121579276 8.119858189874213 0 0 0
433 1 17.574145246089515 9.474619225892672 12.195728661536439 0 0 0
434 1 16.3619019446885 5.449216470984162 13.60723066428688 0 0 0
435 1 17.730630540767482 6.800385014390728 14.94857434749254 0 0 0
436 1 16.250610596233308 8.0846966429166 10.911472748601339 0 0 0
437 1 20.290875324585077 9.499710520185312 14.873438497761734 0 0 0
438 1 18.967515371648602 5.409129066259337 10.96144474321937 0 0 0
439 1 20.451409811539524 6.806788810285793 12.192780913151433 0 0 0
440 1 19.013820870523197 8.12889115657255 13.513822583992429 0 0 0
441 1 17.671047291822894 9.444928354691209 17.638777147401733 0 0 0
442 1 16.31658354463383 5.465041822419041 19.067735398108663 0 0 0